64syn-Me2F+19628CHCl3
26540
    1hA      Ah    1   1.015   9.332  23.032  0.6517 -0.4482 -0.0204
    2mB      Bm    2   0.998   9.644  22.845  0.4610  0.4492  0.0524
    3mC      Cm    3   0.888   9.945  22.660 -0.5553  0.3543  0.5843
    4mC      Cm    4   0.673  10.296  22.612 -1.0922 -0.3698  0.7046
    5mR      Rm    5   0.720  10.043  22.382  0.3554 -1.3504 -0.5495
    6mB      Bm    6   0.438  10.554  22.713 -0.4424 -0.5593  0.1492
    7mA      Am    7   0.127  10.714  22.856  0.1535  0.1735  0.6522
    8mB      Bm    8  -0.201  10.652  23.009 -0.9573 -0.5954 -0.8022
    9mC      Cm    9  -0.494  10.462  23.137 -0.1795 -0.1458  0.0804
   10mC      Cm   10  -0.687  10.157  23.318 -0.7852  1.1572 -0.9224
   11mR      Rm   11  -0.754  10.291  23.016  0.3297  1.6738  0.6045
   12mB      Bm   12  -0.708   9.858  23.533  0.4841 -0.4304 -0.5003
   13mA      Am   13  -0.642   9.525  23.674 -0.5573  0.6721 -0.0943
   14mB      Bm   14  -0.466   9.188  23.670 -0.1501  0.0719  0.0262
   15mC      Cm   15  -0.250   8.924  23.538  0.7828 -1.0265 -0.6920
   16mC      Cm   16   0.086   8.767  23.353 -0.0681 -0.4013 -0.5370
   17mR      Rm   17  -0.239   8.684  23.299 -0.0401  0.2996 -0.6086
   18mB      Bm   18   0.423   8.809  23.190  0.7146 -0.4470  0.5672
   19mA      Am   19   0.673   8.948  22.950 -0.3554 -0.4181 -0.3959
   20mB      Bm   20   0.729   9.175  22.664 -0.2814  0.1397  0.3153
   21mC      Cm   21   0.642   9.417  22.400 -0.2771  0.3102  0.2674
   22mC      Cm   22   0.461   9.756  22.275  0.4688 -1.2960  0.3983
   23mR      Rm   23   0.475   9.455  22.121  1.7098  0.9962 -0.2662
   24mB      Bm   24   0.275  10.071  22.313 -0.9753 -0.7959 -0.6910
   25mA      Am   25   0.011  10.308  22.389  0.2886  0.4879  0.4370
   26mB      Bm   26  -0.349  10.357  22.491 -0.7212  0.2722  1.0438
   27mC      Cm   27  -0.698  10.276  22.597  0.6768  0.2890 -0.1459
   28mC      Cm   28  -0.983  10.088  22.825  1.3505 -0.9032 -0.3084
   29mR      Rm   29  -0.986  10.124  22.486 -0.2830  0.5513 -1.2322
   30mB      Bm   30  -1.077   9.852  23.098 -0.7433  0.1152  0.4516
   31mA      Am   31  -1.087   9.534  23.287  0.2882  0.4777  0.0573
   32mB      Bm   32  -0.980   9.180  23.307  0.0565 -1.1706  0.2691
   33mC      Cm   33  -0.824   8.855  23.202  0.2604  0.1516 -1.0119
   34mC      Cm   34  -0.521   8.651  23.034  1.1513 -0.7968 -0.3976
   35mR      Rm   35  -0.867   8.604  22.985  1.1169 -0.1151 -0.2369
   36mB      Bm   36  -0.181   8.647  22.868 -0.2675  0.3354  0.1789
   37mA      Am   37   0.107   8.720  22.641 -0.6435 -0.3369  0.0394
   38mB      Bm   38   0.237   8.927  22.367  0.6247 -0.3002  0.9805
   39mC      Cm   39   0.251   9.166  22.097 -0.4546  1.1592 -0.3015
   40mC      Cm   40   0.150   9.512  21.914  1.0277 -0.8735 -0.3653
   41mR      Rm   41   0.143   9.201  21.786 -0.4300 -0.9579 -0.2174
   42mB      Bm   42  -0.009   9.844  21.881  0.6465 -0.7000 -0.2952
   43mA      Am   43  -0.261  10.112  21.908  0.0087 -0.0175  0.9417
   44mB      Bm   44  -0.621  10.155  21.996  0.0632 -0.3976  0.1781
   45mC      Cm   45  -0.968  10.074  22.079 -1.0603 -0.9487 -0.2968
   46mC      Cm   46  -1.278   9.905  22.289  0.1033  0.5924 -0.6089
   47mR      Rm   47  -1.267   9.974  21.964  0.6071  0.9963 -0.3684
   48mB      Bm   48  -1.385   9.644  22.538 -0.2166 -0.7069  0.6931
   49mA      Am   49  -1.419   9.317  22.715  0.1624  0.4833  0.5051
   50mB      Bm   50  -1.306   8.964  22.738 -0.5728 -0.9092 -0.6448
   51mC      Cm   51  -1.148   8.652  22.655 -0.7053  1.0103  0.2883
   52mC      Cm   52  -0.841   8.413  22.521  0.6487 -0.9416  0.7041
   53mR      Rm   53  -1.170   8.395  22.437  0.6155  0.0925 -0.2963
   54mB      Bm   54  -0.514   8.356  22.376 -0.4239 -0.9319 -0.0070
   55mA      Am   55  -0.205   8.390  22.167  0.5189  0.6037  0.2335
   56mB      Bm   56  -0.050   8.563  21.877 -0.2343  0.7165  0.1100
   57mC      Cm   57  -0.024   8.801  21.601 -0.2921 -0.8084  0.3950
   58mC      Cm   58  -0.056   9.161  21.404  0.2164  0.1569 -0.3369
   59mR      Rm   59  -0.122   8.858  21.283  0.3154  0.0151 -1.7012
   60mB      Bm   60  -0.172   9.514  21.373 -0.0952 -0.1139  0.3254
   61mA      Am   61  -0.393   9.823  21.374  0.3750  0.5242 -0.1846
   62mB      Bm   62  -0.745   9.930  21.419 -0.3185 -0.3607  0.8773
   63mC      Cm   63  -1.111   9.912  21.476 -0.2888 -0.0712 -1.2587
   64mC      Cm   64  -1.438   9.773  21.665 -1.0811  0.5893  0.3869
   65mR      Rm   65  -1.398   9.829  21.332 -1.2521  0.2811 -1.2853
   66mB      Bm   66  -1.592   9.568  21.945  0.6744 -0.4226  0.8097
   67mA      Am   67  -1.669   9.268  22.147 -0.4470 -0.0679  0.5136
   68mB      Bm   68  -1.599   8.906  22.213 -0.1280 -0.0341 -0.6606
   69mC      Cm   69  -1.472   8.568  22.177  0.2967  0.5726  0.4563
   70mC      Cm   70  -1.202   8.280  22.077 -0.0247  0.1262  0.2584
   71mR      Rm   71  -1.521   8.288  21.988  0.2886  0.7267 -0.2183
   72mB      Bm   72  -0.874   8.161  21.943 -0.3017  0.0699 -0.8972
   73mA      Am   73  -0.573   8.131  21.736 -0.1256  0.3060  0.5044
   74mB      Bm   74  -0.380   8.279  21.452 -0.0308 -0.2537  0.3709
   75mC      Cm   75  -0.309   8.501  21.154 -0.4607  0.1078  0.4700
   76mC      Cm   76  -0.344   8.848  20.940  1.1718  0.3926  0.8552
   77mR      Rm   77  -0.406   8.530  20.828  1.1545 -0.4537 -2.4211
   78mB      Bm   78  -0.426   9.197  20.877 -0.0465  0.2861  0.1625
   79mA      Am   79  -0.631   9.515  20.863  0.5646 -0.4335 -0.4999
   80mB      Bm   80  -0.953   9.668  20.912 -0.1272  0.1190  0.2046
   81mC      Cm   81  -1.315   9.715  20.968 -0.2913  0.3824  0.6362
   82mC      Cm   82  -1.654   9.599  21.166  0.5927 -0.5651  0.7901
   83mR      Rm   83  -1.609   9.621  20.837  0.0765 -0.9103  1.2347
   84mB      Bm   84  -1.842   9.422  21.424  0.5084  0.1949  0.4871
   85mA      Am   85  -1.974   9.139  21.647 -0.7826 -0.8946  0.0879
   86mB      Bm   86  -1.949   8.773  21.732  0.1002  0.8014  0.4360
   87mC      Cm   87  -1.859   8.417  21.698 -0.3161  0.5862 -0.3292
   88mC      Cm   88  -1.588   8.117  21.621 -0.5515 -0.5753  0.2982
   89mR      Rm   89  -1.900   8.151  21.484 -0.3780 -0.1145  0.0370
   90mB      Bm   90  -1.253   7.977  21.554 -0.5137 -0.7938 -0.3037
   91mA      Am   91  -0.925   7.914  21.374 -0.2518  0.1721  0.0855
   92mB      Bm   92  -0.724   8.005  21.068 -0.2985 -0.0093 -0.3889
   93mC      Cm   93  -0.641   8.159  20.744  1.0009 -0.4787  0.4367
   94mC      Cm   94  -0.606   8.471  20.475 -0.0199 -0.2672  0.0334
   95mR      Rm   95  -0.700   8.154  20.407 -0.2259  0.3675 -0.6877
   96mB      Bm   96  -0.654   8.820  20.367 -0.2058  0.4919 -0.3188
   97mA      Am   97  -0.804   9.146  20.307 -0.7941 -0.0507  0.8273
   98mB      Bm   98  -1.113   9.340  20.304  0.2216 -0.0447 -0.1209
   99mC      Cm   99  -1.474   9.405  20.334 -0.3567  0.4617 -0.2340
  100mC      Cm  100  -1.837   9.347  20.516 -0.4804 -1.0375 -0.4991
  101mR      Rm  101  -1.771   9.363  20.170  0.1775  1.5297 -0.3640
  102mB      Bm  102  -2.056   9.206  20.775  0.0704 -0.0845  0.6473
  103mA      Am  103  -2.227   8.979  21.016  0.6805 -0.5639 -0.0376
  104mB      Bm  104  -2.294   8.642  21.151 -0.8227  0.4921  0.5581
  105mC      Cm  105  -2.280   8.270  21.193  0.9319  0.3824 -1.0257
  106mC      Cm  106  -2.106   7.900  21.251  0.2880  0.4997  0.1816
  107mR      Rm  107  -2.352   7.982  21.033 -0.9313  0.2092  0.1814
  108tB      Bt  108  -1.826   7.655  21.301 -0.1614  0.2030 -0.3820
    1hA      Ah  109   1.869   1.159  31.203 -0.3612 -0.4361 -0.0864
    2mB      Bm  110   1.965   0.814  31.131 -0.6123  0.9134  0.1475
    3mC      Cm  111   2.123   0.488  31.216 -1.0540  0.6213 -0.8044
    4mC      Cm  112   2.178   0.166  31.448 -0.2884 -0.4457 -0.2280
    5mR      Rm  113   2.417   0.313  31.256  3.1520 -0.0229 -0.3779
    6mB      Bm  114   2.119  -0.038  31.745  0.0292 -0.4548 -0.1089
    7mA      Am  115   2.091  -0.135  32.106 -0.3607  0.3328  0.2377
    8mB      Bm  116   2.146  -0.020  32.451  0.1104  0.8934  0.0624
    9mC      Cm  117   2.263   0.212  32.713  0.4217  0.3669 -0.8964
   10mC      Cm  118   2.289   0.544  32.944 -0.4334  0.0775 -0.6114
   11mR      Rm  119   2.529   0.309  32.896 -0.9082  0.7301 -0.3626
   12mB      Bm  120   2.242   0.915  33.018 -0.0872 -0.5656 -0.5663
   13mA      Am  121   2.235   1.277  32.953 -0.1831  0.4933 -0.7886
   14mB      Bm  122   2.322   1.528  32.701  0.1689 -1.0418 -0.2943
   15mC      Cm  123   2.457   1.681  32.402 -0.9056  0.0289 -0.4133
   16mC      Cm  124   2.531   1.715  31.999 -0.7298 -0.4865 -0.0987
   17mR      Rm  125   2.743   1.807  32.252  0.2686  0.1509  2.5361
   18mB      Bm  126   2.511   1.598  31.662  0.3824 -0.7034 -0.9671
   19mA      Am  127   2.512   1.365  31.366  0.1707  0.3376  0.0049
   20mB      Bm  128   2.599   1.004  31.264 -0.8609 -0.1957 -0.3003
   21mC      Cm  129   2.727   0.655  31.295 -0.7884  0.4765 -0.8098
   22mC      Cm  130   2.804   0.294  31.466 -0.7987  0.1211 -0.0092
   23mR      Rm  131   3.026   0.485  31.297 -1.3866 -0.1591  0.2172
   24mB      Bm  132   2.786   0.055  31.737  0.3500 -0.4857 -0.6195
   25mA      Am  133   2.788  -0.052  32.091 -0.3922  0.2645  1.0951
   26mB      Bm  134   2.839   0.036  32.444 -0.2274  0.4584 -0.0962
   27mC      Cm  135   2.912   0.249  32.741  0.3713 -0.3440  0.0974
   28mC      Cm  136   2.926   0.593  32.953 -0.6921  1.6896 -0.2019
   29mR      Rm  137   3.185   0.372  32.908  0.4359 -0.9474  0.0353
   30mB      Bm  138   2.859   0.955  33.026  0.5743  0.2656 -0.4386
   31mA      Am  139   2.836   1.315  33.006  0.0279 -0.2640  0.2874
   32mB      Bm  140   2.911   1.626  32.834 -0.1031 -0.1495  0.5383
   33mC      Cm  141   3.039   1.850  32.564  0.3189  1.1815 -0.3787
   34mC      Cm  142   3.096   1.960  32.165  0.4955  0.6896  0.6018
   35mR      Rm  143   3.327   1.934  32.408 -0.6897  0.5395  0.2028
   36mB      Bm  144   3.059   1.893  31.799  0.9014  0.4937 -0.4427
   37mA      Am  145   3.064   1.696  31.477  0.2676  0.1677  0.7329
   38mB      Bm  146   3.193   1.395  31.311 -0.6406 -0.5577 -0.2276
   39mC      Cm  147   3.358   1.074  31.260 -0.5899  0.1215 -1.4768
   40mC      Cm  148   3.423   0.684  31.390  0.3183  0.8756 -0.4570
   41mR      Rm  149   3.642   0.895  31.239  0.7910  0.7856  0.7568
   42mB      Bm  150   3.374   0.396  31.609  0.4154 -0.1819  0.1628
   43mA      Am  151   3.379   0.192  31.922  0.2337 -0.2641 -0.1940
   44mB      Bm  152   3.439   0.179  32.283 -0.3309  0.3032 -0.9344
   45mC      Cm  153   3.526   0.293  32.621 -0.1827  0.4264 -0.2438
   46mC      Cm  154   3.556   0.584  32.912  0.3683 -0.1817 -0.4934
   47mR      Rm  155   3.795   0.354  32.830  0.1366  0.2077 -0.2536
   48mB      Bm  156   3.500   0.918  33.056  0.0462 -0.0068  0.4642
   49mA      Am  157   3.481   1.282  33.104 -0.6086  0.2941 -0.4657
   50mB      Bm  158   3.555   1.599  32.914  0.1138 -0.6524 -0.1069
   51mC      Cm  159   3.655   1.813  32.647  0.7164 -0.9367  0.6957
   52mC      Cm  160   3.682   1.977  32.272  0.1604  0.2976  0.9802
   53mR      Rm  161   3.928   1.957  32.499  1.7146 -0.4848 -0.4908
   54mB      Bm  162   3.655   1.944  31.904 -0.6214  0.1155  0.2521
   55mA      Am  163   3.672   1.818  31.560 -0.1268 -0.5920  0.0713
   56mB      Bm  164   3.796   1.543  31.354  0.5247 -0.1574  0.1481
   57mC      Cm  165   3.959   1.236  31.225  0.4768  0.8719  0.9765
   58mC      Cm  166   4.060   0.839  31.249  0.5982 -0.0580 -0.2588
   59mR      Rm  167   4.262   1.101  31.160  1.5959 -0.6825 -0.6629
   60mB      Bm  168   4.068   0.484  31.384  0.4373  0.1237 -1.0618
   61mA      Am  169   4.107   0.205  31.608 -0.3484  0.2399 -0.7366
   62mB      Bm  170   4.205   0.086  31.942 -0.4871  0.3976 -0.2886
   63mC      Cm  171   4.311   0.082  32.295  0.8079  0.7995  0.3228
   64mC      Cm  172   4.332   0.225  32.680 -0.1686 -0.4623 -0.0961
   65mR      Rm  173   4.589   0.134  32.487  1.7151 -0.3204  1.1059
   66mB      Bm  174   4.268   0.425  32.984 -0.4503 -0.1366 -0.0640
   67mA      Am  175   4.243   0.712  33.218 -0.8857 -0.8986  0.2892
   68mB      Bm  176   4.319   1.083  33.268 -0.0186  0.8313  0.0196
   69mC      Cm  177   4.430   1.439  33.242  0.7150 -0.5217  0.1241
   70mC      Cm  178   4.469   1.816  33.083 -0.8405  1.1952  1.1768
   71mR      Rm  179   4.715   1.638  33.226 -1.1042  0.5071  0.6779
   72mB      Bm  180   4.410   2.069  32.811 -0.2825  0.0591  0.6162
   73mA      Am  181   4.393   2.214  32.477  0.2705 -0.2576 -0.4301
   74mB      Bm  182   4.478   2.158  32.121 -0.5564  0.8282  0.2259
   75mC      Cm  183   4.610   1.995  31.832 -0.5442  0.3710  0.9902
   76mC      Cm  184   4.678   1.652  31.618  0.9473 -0.0623 -0.0283
   77mR      Rm  185   4.896   1.916  31.675 -0.7165 -0.0507  0.0707
   78mB      Bm  186   4.683   1.297  31.529  0.6875 -0.1827  0.1882
   79mA      Am  187   4.731   0.939  31.565  0.5869  0.2527  0.4217
   80mB      Bm  188   4.816   0.628  31.770  0.8059 -0.0178  0.0006
   81mC      Cm  189   4.959   0.426  32.047 -0.7778 -0.1778 -1.5262
   82mC      Cm  190   5.035   0.359  32.442 -0.0473 -0.3655  0.1161
   83mR      Rm  191   5.253   0.322  32.188 -1.1229  0.1634 -0.1373
   84mB      Bm  192   5.059   0.434  32.798 -1.1708 -0.1891 -0.3128
   85mA      Am  193   5.140   0.625  33.099 -0.1048  0.8270  0.6245
   86mB      Bm  194   5.241   0.948  33.242 -0.5032  0.1415 -0.4334
   87mC      Cm  195   5.347   1.306  33.265  0.5345  0.2193  0.0280
   88mC      Cm  196   5.312   1.680  33.101  0.4285 -0.2346  0.2934
   89mR      Rm  197   5.596   1.522  33.187 -0.8688  0.7662  0.1192
   90mB      Bm  198   5.175   1.932  32.875 -0.8055 -0.1134  0.2404
   91mA      Am  199   5.088   2.099  32.553  0.0056 -0.4741  0.4375
   92mB      Bm  200   5.100   2.138  32.177 -0.2465  0.0955 -0.4670
   93mC      Cm  201   5.217   2.101  31.807  0.1186  0.3620  1.1358
   94mC      Cm  202   5.315   1.893  31.468  0.8789 -0.7924  1.3112
   95mR      Rm  203   5.450   2.185  31.577 -1.1643 -0.2276 -1.0522
   96mB      Bm  204   5.393   1.596  31.250 -0.0308 -0.5013  0.9500
   97mA      Am  205   5.541   1.281  31.136 -0.3042  0.1338 -0.3407
   98mB      Bm  206   5.807   1.044  31.235 -1.0230  0.5497 -0.2149
   99mC      Cm  207   6.090   0.876  31.415  1.1889  0.6405 -0.1036
  100mC      Cm  208   6.276   0.704  31.738 -0.5274 -1.1781  0.2539
  101mR      Rm  209   6.418   0.893  31.499 -0.2753 -1.0458  0.1319
  102mB      Bm  210   6.313   0.638  32.097  0.0933  0.8745  0.3448
  103mA      Am  211   6.318   0.691  32.462  0.0049 -0.3721  0.1234
  104mB      Bm  212   6.288   0.938  32.738  0.5344 -0.8140 -1.1358
  105mC      Cm  213   6.247   1.267  32.920 -0.6154  0.0946  0.7962
  106mC      Cm  214   6.090   1.641  32.966  0.0831 -0.6746  0.7419
  107mR      Rm  215   6.418   1.557  32.971  0.0215 -1.9124 -0.0630
  108tB      Bt  216   5.845   1.898  33.107 -0.5719  0.1433 -0.7466
    1hA      Ah  217   3.254   4.263  22.469  0.6555  0.3958 -0.1509
    2mB      Bm  218   3.155   4.502  22.743 -0.0785 -0.5379 -0.4431
    3mC      Cm  219   2.961   4.679  23.011 -1.1227 -0.0224  0.7282
    4mC      Cm  220   2.723   4.696  23.347  0.9244  0.5612 -0.8533
    5mR      Rm  221   2.722   4.910  23.078  0.7013  0.9039  0.1320
    6mB      Bm  222   2.509   4.565  23.616  0.0874  0.1423 -0.3480
    7mA      Am  223   2.245   4.399  23.808 -0.0038  0.4857 -0.0900
    8mB      Bm  224   1.935   4.185  23.767  0.4138  0.7747 -0.5990
    9mC      Cm  225   1.654   3.998  23.605 -0.3653 -0.9994  0.2840
   10mC      Cm  226   1.493   3.751  23.321 -0.2328 -0.0513  0.3347
   11mR      Rm  227   1.351   4.035  23.445  0.0994  1.1901  0.6603
   12mB      Bm  228   1.528   3.529  23.029  0.0183  0.4323  0.1451
   13mA      Am  229   1.599   3.423  22.681  0.0934 -0.5464 -0.2223
   14mB      Bm  230   1.736   3.500  22.356  0.2524  0.8183 -0.7525
   15mC      Cm  231   1.894   3.710  22.094 -0.7727 -0.0434 -1.1915
   16mC      Cm  232   2.131   4.014  21.974  0.3012  0.1338 -0.1034
   17mR      Rm  233   1.821   3.942  21.866  1.9224 -0.2565  0.8175
   18mB      Bm  234   2.377   4.286  22.012 -0.2636  0.0154  0.3508
   19mA      Am  235   2.558   4.592  22.127 -0.4662  0.0715 -0.0239
   20mB      Bm  236   2.559   4.871  22.367  0.2362 -0.3337 -0.3809
   21mC      Cm  237   2.419   5.072  22.639 -0.0050  0.7054  0.4387
   22mC      Cm  238   2.261   5.126  23.014 -0.1169 -0.0497 -0.4149
   23mR      Rm  239   2.202   5.314  22.737 -0.0490  0.0766  1.5518
   24mB      Bm  240   2.096   5.006  23.323  0.0859 -0.1707 -0.0163
   25mA      Am  241   1.853   4.827  23.542 -0.0415 -0.4045  0.4037
   26mB      Bm  242   1.561   4.597  23.559  0.1173  0.6636 -0.4193
   27mC      Cm  243   1.255   4.397  23.467 -0.0565 -0.7796 -0.3543
   28mC      Cm  244   1.067   4.159  23.201  0.2769 -0.2681  0.6876
   29mR      Rm  245   0.938   4.439  23.359  0.2352  1.0134  0.2577
   30mB      Bm  246   1.044   3.956  22.892 -0.2091  0.5916 -0.2235
   31mA      Am  247   1.088   3.852  22.540  0.6362  0.0712 -0.4511
   32mB      Bm  248   1.194   3.913  22.190 -0.1559 -1.0342  0.8491
   33mC      Cm  249   1.323   4.094  21.890 -0.4061  0.6914 -0.1927
   34mC      Cm  250   1.573   4.376  21.739 -0.3863 -0.2491 -0.0895
   35mR      Rm  251   1.242   4.339  21.670  0.0069  0.3799 -0.1363
   36mB      Bm  252   1.843   4.625  21.753 -0.3868  0.3882  0.1887
   37mA      Am  253   2.044   4.915  21.860  0.2489  0.0962  1.3636
   38mB      Bm  254   2.062   5.181  22.103  0.7088  0.4883  0.0324
   39mC      Cm  255   1.960   5.393  22.400  0.5287 -0.6450 -0.1480
   40mC      Cm  256   1.835   5.466  22.778 -0.8466  0.3588 -0.3202
   41mR      Rm  257   1.747   5.635  22.499  0.5154 -0.0566  0.8004
   42mB      Bm  258   1.708   5.375  23.118  0.0790 -0.1586  0.0653
   43mA      Am  259   1.478   5.207  23.358  0.0989 -0.8870 -0.3281
   44mB      Bm  260   1.173   5.013  23.415 -0.3508  0.1019 -0.5129
   45mC      Cm  261   0.861   4.820  23.348  0.8720  0.4954  0.0936
   46mC      Cm  262   0.647   4.546  23.133  0.2262 -0.1035  0.6552
   47mR      Rm  263   0.541   4.847  23.253 -0.0902 -0.2110  0.9450
   48mB      Bm  264   0.605   4.312  22.857 -0.0722 -1.0853 -0.4471
   49mA      Am  265   0.617   4.172  22.513 -0.1409 -0.1882  0.0867
   50mB      Bm  266   0.691   4.216  22.148  0.7613  0.0203  0.5759
   51mC      Cm  267   0.785   4.404  21.827 -0.1464  0.6138 -0.8658
   52mC      Cm  268   1.012   4.675  21.621 -0.0690 -0.3597  0.8636
   53mR      Rm  269   0.689   4.645  21.608  0.9163 -1.8710  0.6983
   54mB      Bm  270   1.289   4.920  21.581 -0.6598 -0.0179  0.1763
   55mA      Am  271   1.501   5.214  21.646  0.7387  0.1428 -0.2609
   56mB      Bm  272   1.545   5.503  21.860 -0.3290 -0.2444  0.1365
   57mC      Cm  273   1.486   5.758  22.126  0.5492  0.8808  1.1721
   58mC      Cm  274   1.390   5.863  22.503 -0.3377  0.1705 -1.1852
   59mR      Rm  275   1.291   6.020  22.226  0.0648  0.0629  0.8168
   60mB      Bm  276   1.267   5.785  22.849  0.2035 -0.6873  0.1120
   61mA      Am  277   1.055   5.650  23.128  0.2095 -0.0699 -0.1794
   62mB      Bm  278   0.747   5.452  23.212  0.2004  0.2860  0.1667
   63mC      Cm  279   0.429   5.263  23.172 -0.1492 -0.0863  0.7258
   64mC      Cm  280   0.195   4.973  23.008  0.5453  0.3076 -0.7548
   65mR      Rm  281   0.104   5.283  23.096  0.9605 -0.2193  1.2570
   66mB      Bm  282   0.137   4.705  22.758 -1.0486 -1.2027  0.2693
   67mA      Am  283   0.117   4.531  22.430  0.0365  0.3871  0.6791
   68mB      Bm  284   0.196   4.571  22.070  0.5344  0.4150  0.1090
   69mC      Cm  285   0.305   4.709  21.753 -0.2208  0.2846  0.9854
   70mC      Cm  286   0.517   4.939  21.486  0.1120  0.6876 -1.0160
   71mR      Rm  287   0.181   4.917  21.512 -0.4099  0.2327  0.8917
   72mB      Bm  288   0.794   5.177  21.402  0.6642  0.2065  0.4982
   73mA      Am  289   1.026   5.461  21.425 -0.0827 -0.4507  0.0620
   74mB      Bm  290   1.096   5.789  21.607  0.1599 -0.4760 -1.0440
   75mC      Cm  291   1.051   6.063  21.848  0.7850 -0.7590 -0.7527
   76mC      Cm  292   0.964   6.229  22.214  0.0229 -0.1542 -0.3080
   77mR      Rm  293   0.869   6.349  21.909 -0.8405  0.0677 -0.0482
   78mB      Bm  294   0.852   6.191  22.573  0.0097 -0.9446 -0.1297
   79mA      Am  295   0.665   6.102  22.902  0.3231  0.0661  0.6936
   80mB      Bm  296   0.364   5.930  23.033 -0.0861 -0.3103  0.0714
   81mC      Cm  297   0.033   5.747  23.049  0.3713 -0.8858  0.0718
   82mC      Cm  298  -0.220   5.458  22.918 -0.2202  0.1504  0.3910
   83mR      Rm  299  -0.297   5.784  22.976  0.4619  0.2438 -0.1810
   84mB      Bm  300  -0.303   5.168  22.707 -0.4356 -0.5603 -0.3401
   85mA      Am  301  -0.358   4.965  22.389  0.6198  0.0371 -0.3812
   86mB      Bm  302  -0.331   4.932  22.021 -0.2133  0.0473  0.2459
   87mC      Cm  303  -0.263   5.007  21.659 -0.3757 -0.7904  0.2464
   88mC      Cm  304  -0.051   5.169  21.352 -0.9280  1.1973 -0.1961
   89mR      Rm  305  -0.383   5.156  21.381  1.6064 -0.5907 -0.0555
   90mB      Bm  306   0.235   5.353  21.199  0.1616  0.4778 -0.3336
   91mA      Am  307   0.466   5.643  21.158  0.2205 -0.1495 -0.0272
   92mB      Bm  308   0.557   5.981  21.259 -0.4233 -0.4395 -0.0973
   93mC      Cm  309   0.560   6.309  21.440 -0.5111  0.3474  0.0375
   94mC      Cm  310   0.548   6.550  21.771 -0.6566 -0.5676 -0.2144
   95mR      Rm  311   0.410   6.610  21.469  0.6862  1.1018  1.6176
   96mB      Bm  312   0.486   6.622  22.128 -0.1369  0.2390 -0.6354
   97mA      Am  313   0.349   6.625  22.472 -1.0006  0.0113  0.4268
   98mB      Bm  314   0.080   6.503  22.691 -0.3560 -0.2840  0.1425
   99mC      Cm  315  -0.243   6.346  22.798  0.4109 -0.2291 -0.9009
  100mC      Cm  316  -0.533   6.057  22.792 -0.7589 -0.3695  0.1517
  101mR      Rm  317  -0.582   6.381  22.812 -0.0148  0.9870 -1.5770
  102mB      Bm  318  -0.678   5.749  22.657  0.0392 -0.4322  0.2754
  103mA      Am  319  -0.799   5.493  22.410 -0.1926  1.1025  0.0569
  104mB      Bm  320  -0.843   5.408  22.045  0.1880 -0.9930 -0.5268
  105mC      Cm  321  -0.815   5.436  21.686 -0.3210  0.9092  0.0357
  106mC      Cm  322  -0.617   5.492  21.336 -0.1884 -0.1082 -1.0565
  107mR      Rm  323  -0.928   5.609  21.420 -0.4240  0.9649 -0.1042
  108tB      Bt  324  -0.325   5.559  21.107 -0.3334 -0.3422  0.1815
    1hA      Ah  325   0.626   6.693  19.301  0.1205 -0.2474 -0.3739
    2mB      Bm  326   0.600   6.333  19.393  0.8552 -0.1203  0.6735
    3mC      Cm  327   0.592   5.969  19.356  0.9291 -0.1886  1.4141
    4mC      Cm  328   0.732   5.618  19.201 -0.5538  0.9966  1.1828
    5mR      Rm  329   0.405   5.717  19.232 -1.8694 -1.3979 -0.8807
    6mB      Bm  330   0.939   5.400  18.986  0.1932  1.1878 -0.4499
    7mA      Am  331   1.122   5.241  18.708  0.1028 -0.3758 -0.1810
    8mB      Bm  332   1.193   5.294  18.344 -0.3357  0.2735 -0.3872
    9mC      Cm  333   1.189   5.417  17.997  0.2306  0.6010  0.5150
   10mC      Cm  334   1.188   5.708  17.708  0.1969  0.1124 -0.4632
   11mR      Rm  335   0.980   5.439  17.734 -1.1654 -0.8043  0.0118
   12mB      Bm  336   1.174   6.060  17.594  0.2265  0.1179 -0.0483
   13mA      Am  337   1.056   6.410  17.552  0.3045 -0.2606  0.3210
   14mB      Bm  338   0.812   6.663  17.642 -0.9322 -1.0644  0.3400
   15mC      Cm  339   0.517   6.811  17.823  0.9286 -0.0239  1.0540
   16mC      Cm  340   0.292   6.892  18.153  0.7982 -0.4232 -1.0020
   17mR      Rm  341   0.186   6.825  17.838  0.6256  0.5147 -0.2034
   18mB      Bm  342   0.199   6.847  18.516 -0.3479  0.1109  0.3177
   19mA      Am  343   0.117   6.684  18.837  0.2685  0.0943 -0.1856
   20mB      Bm  344   0.070   6.361  19.008  0.2173  0.1552 -0.6596
   21mC      Cm  345   0.041   5.997  19.050 -1.3700  0.7273 -0.1652
   22mC      Cm  346   0.180   5.621  18.962  0.4764  0.6443 -0.6643
   23mR      Rm  347  -0.144   5.719  18.999 -1.0176 -0.8263  0.4359
   24mB      Bm  348   0.404   5.374  18.802 -0.3639 -0.5250  0.2208
   25mA      Am  349   0.590   5.191  18.536  0.0870 -0.0392 -0.2346
   26mB      Bm  350   0.672   5.153  18.169 -0.3913 -0.4417  0.6255
   27mC      Cm  351   0.658   5.207  17.808 -0.3811  0.2663  0.0521
   28mC      Cm  352   0.641   5.450  17.481  0.0345 -0.1568  0.2707
   29mR      Rm  353   0.473   5.160  17.524 -0.3427  0.2322 -0.4671
   30mB      Bm  354   0.615   5.770  17.297 -0.5051 -0.3005 -0.3844
   31mA      Am  355   0.491   6.111  17.205 -0.1125  0.2257  0.5235
   32mB      Bm  356   0.231   6.365  17.292 -0.4212  0.1322 -0.1334
   33mC      Cm  357  -0.067   6.517  17.454  0.8341  0.2263 -0.8050
   34mC      Cm  358  -0.302   6.625  17.767 -0.0058  0.1863  1.2224
   35mR      Rm  359  -0.410   6.520  17.465  0.1352 -0.0276 -0.2578
   36mB      Bm  360  -0.392   6.623  18.134  0.0327  0.2994 -0.6539
   37mA      Am  361  -0.469   6.509  18.476 -0.3357  0.4352  0.3084
   38mB      Bm  362  -0.525   6.219  18.706 -0.1962 -0.0760 -0.1840
   39mC      Cm  363  -0.546   5.861  18.810 -0.4766 -0.1643  0.2552
   40mC      Cm  364  -0.403   5.483  18.777 -1.4342  0.9016  0.7182
   41mR      Rm  365  -0.730   5.583  18.758 -0.0336 -1.1802  0.5473
   42mB      Bm  366  -0.183   5.210  18.646  0.2754 -0.7094 -0.2442
   43mA      Am  367   0.008   4.990  18.425 -0.4351 -0.2900 -0.0666
   44mB      Bm  368   0.108   4.929  18.064  0.4770  0.0571  0.6475
   45mC      Cm  369   0.134   4.960  17.690 -0.5652  0.5899  1.2930
   46mC      Cm  370   0.154   5.147  17.329 -0.4605 -0.9568 -1.0230
   47mR      Rm  371  -0.039   4.882  17.410  0.0707 -0.0969 -1.4870
   48mB      Bm  372   0.139   5.456  17.118 -0.1326  0.3914 -0.6230
   49mA      Am  373   0.030   5.776  16.988  0.0865  0.2719 -0.1708
   50mB      Bm  374  -0.206   6.065  17.029 -0.7253  0.5569  0.4732
   51mC      Cm  375  -0.498   6.256  17.145  0.3213  0.6605 -0.2565
   52mC      Cm  376  -0.745   6.420  17.426 -0.4144 -0.0408 -1.0114
   53mR      Rm  377  -0.823   6.302  17.117  0.8218 -0.0895 -0.2982
   54mB      Bm  378  -0.854   6.443  17.791 -0.2191 -0.1300 -0.4130
   55mA      Am  379  -0.955   6.361  18.143 -0.5432 -0.0374  0.9229
   56mB      Bm  380  -1.006   6.078  18.373  0.9415 -0.6284  0.6194
   57mC      Cm  381  -1.024   5.707  18.482  0.3940 -0.0751 -0.5324
   58mC      Cm  382  -0.914   5.313  18.502  0.6593 -0.0590 -0.6114
   59mR      Rm  383  -1.227   5.439  18.486 -1.1997 -0.6524 -0.0073
   60mB      Bm  384  -0.694   5.030  18.399 -0.1050  0.7015  0.8230
   61mA      Am  385  -0.502   4.790  18.199  0.1202  0.5466  0.0908
   62mB      Bm  386  -0.415   4.702  17.847  0.4923 -0.2295 -0.0940
   63mC      Cm  387  -0.402   4.727  17.477  0.1483 -0.1719 -0.0644
   64mC      Cm  388  -0.377   4.923  17.115 -1.4946 -0.1567 -1.1454
   65mR      Rm  389  -0.569   4.658  17.198 -0.3733  0.6360 -0.0989
   66mB      Bm  390  -0.361   5.218  16.894  0.1328  1.4561  0.2088
   67mA      Am  391  -0.433   5.552  16.739 -0.5501  0.2772  0.4686
   68mB      Bm  392  -0.664   5.845  16.745 -0.1245 -0.4692 -0.2540
   69mC      Cm  393  -0.942   6.071  16.830  0.0599 -0.7509 -0.0651
   70mC      Cm  394  -1.189   6.270  17.093  0.1110 -0.5410 -0.4921
   71mR      Rm  395  -1.285   6.107  16.821  0.6154  0.6733  2.4183
   72mB      Bm  396  -1.312   6.345  17.428 -0.0808 -0.3434  0.1212
   73mA      Am  397  -1.417   6.300  17.777 -0.0709  0.5060 -0.0846
   74mB      Bm  398  -1.512   6.055  18.037  0.0246 -0.0603  0.2454
   75mC      Cm  399  -1.588   5.734  18.207  0.0899  0.8782  0.4115
   76mC      Cm  400  -1.524   5.336  18.275 -0.1944 -0.7923 -0.1883
   77mR      Rm  401  -1.816   5.486  18.202  0.6685 -0.3083 -0.3936
   78mB      Bm  402  -1.331   5.022  18.242  0.7307 -0.5301  0.3856
   79mA      Am  403  -1.144   4.745  18.103 -0.1480  0.0921  0.2579
   80mB      Bm  404  -1.026   4.575  17.780  0.5153  0.3516 -0.9902
   81mC      Cm  405  -0.980   4.512  17.421  0.7063  0.1278  1.2013
   82mC      Cm  406  -0.908   4.613  17.031 -0.6708  0.2975  0.7127
   83mR      Rm  407  -1.137   4.404  17.144  0.6265 -1.5815 -0.9900
   84mB      Bm  408  -0.836   4.872  16.764  0.3648  0.0436  0.3766
   85mA      Am  409  -0.853   5.172  16.549  0.4305 -1.0689 -0.1831
   86mB      Bm  410  -1.069   5.470  16.491  0.5728  0.1839  0.9225
   87mC      Cm  411  -1.341   5.720  16.511 -0.4059 -0.2475 -0.8682
   88mC      Cm  412  -1.618   5.925  16.740 -0.5489  1.1933 -0.2748
   89mR      Rm  413  -1.677   5.753  16.454  0.0404  0.1189  0.8227
   90mB      Bm  414  -1.773   6.030  17.060 -0.7395 -0.7295  0.8601
   91mA      Am  415  -1.930   6.011  17.400  0.4914  0.6988 -0.3772
   92mB      Bm  416  -2.049   5.812  17.676  0.1045  0.2612 -0.8660
   93mC      Cm  417  -2.138   5.517  17.879 -0.1560 -0.3513  0.3596
   94mC      Cm  418  -2.072   5.141  18.012  0.3011 -0.3594  0.2179
   95mR      Rm  419  -2.375   5.275  17.928  0.3436  0.4590  0.5973
   96mB      Bm  420  -1.878   4.825  18.027 -0.3001 -0.4207 -0.1539
   97mA      Am  421  -1.696   4.526  17.925 -0.3717  0.3489  0.1458
   98mB      Bm  422  -1.573   4.326  17.636  0.8238  0.3515  0.7579
   99mC      Cm  423  -1.500   4.220  17.283  0.2507 -0.1738 -0.4421
  100mC      Cm  424  -1.406   4.308  16.899 -0.2101  0.4104 -0.1705
  101mR      Rm  425  -1.644   4.096  17.004 -0.1248 -0.6777 -0.2705
  102mB      Bm  426  -1.324   4.554  16.645  0.0139  0.6767 -0.2274
  103mA      Am  427  -1.313   4.844  16.415  0.5440  0.0850 -0.1444
  104mB      Bm  428  -1.506   5.144  16.326  0.2866  0.2601  0.4787
  105mC      Cm  429  -1.768   5.396  16.307 -1.2297 -0.8830 -1.0568
  106mC      Cm  430  -2.023   5.683  16.446  0.3780 -0.7349  0.1492
  107mR      Rm  431  -2.089   5.447  16.212 -0.0378  0.5442  0.2696
  108tB      Bt  432  -2.172   5.927  16.680 -0.5384 -0.4933  0.1257
    1hA      Ah  433   2.985   3.127  34.048  0.1835 -0.4996  0.3286
    2mB      Bm  434   3.221   2.852  34.159  0.8621  0.4715 -0.6578
    3mC      Cm  435   3.542   2.690  34.247 -0.4578  0.3649 -0.1795
    4mC      Cm  436   3.909   2.668  34.434 -0.5512  1.0596 -1.1138
    5mR      Rm  437   3.834   2.583  34.126  0.5076 -0.6576  0.3098
    6mB      Bm  438   4.188   2.818  34.642 -0.5114 -1.2426  0.7834
    7mA      Am  439   4.438   3.058  34.770 -0.0147  0.1174  0.4263
    8mB      Bm  440   4.541   3.425  34.777 -0.1504  0.5020 -1.1686
    9mC      Cm  441   4.560   3.797  34.741 -0.2421 -1.5076  1.0681
   10mC      Cm  442   4.478   4.193  34.789  0.2902  1.4695  0.6983
   11mR      Rm  443   4.627   4.033  34.528 -0.1722 -0.5605  1.3316
   12mB      Bm  444   4.256   4.466  34.884 -0.4171  0.6306  0.6634
   13mA      Am  445   3.967   4.701  34.900  1.0076  0.6961 -0.5048
   14mB      Bm  446   3.611   4.794  34.779 -0.2373 -0.2123  0.1816
   15mC      Cm  447   3.298   4.797  34.578 -0.7657  1.1621  0.4414
   16mC      Cm  448   2.959   4.615  34.423 -0.0468  1.1248 -0.3367
   17mR      Rm  449   3.146   4.852  34.282 -0.4434  0.0696 -0.6952
   18mB      Bm  450   2.765   4.301  34.376  0.1523  0.3768  1.6964
   19mA      Am  451   2.706   3.934  34.293 -0.7711 -0.6621  0.4864
   20mB      Bm  452   2.870   3.639  34.155  0.9746 -0.4293 -0.6750
   21mC      Cm  453   3.144   3.441  34.009 -0.7552 -1.2160 -0.3019
   22mC      Cm  454   3.537   3.301  33.992 -0.1281 -0.6247  0.0551
   23mR      Rm  455   3.330   3.361  33.747 -3.2107  0.4023  0.5598
   24mB      Bm  456   3.892   3.277  34.086 -0.2452 -0.3219  0.5915
   25mA      Am  457   4.256   3.348  34.163  1.1448 -0.1330  0.6322
   26mB      Bm  458   4.507   3.616  34.167  0.2019 -0.1957 -0.0710
   27mC      Cm  459   4.652   3.949  34.104  1.5257  0.1110  0.3065
   28mC      Cm  460   4.602   4.355  34.109  0.5213  0.6029 -0.8186
   29mR      Rm  461   4.790   4.166  33.893 -0.1416  0.2252  1.5970
   30mB      Bm  462   4.414   4.672  34.138  0.8252  0.3398 -0.1306
   31mA      Am  463   4.140   4.927  34.059  0.0161  0.8413  1.0082
   32mB      Bm  464   3.830   4.989  33.853  0.3849 -0.1673 -0.1865
   33mC      Cm  465   3.564   4.926  33.606  0.5000  1.1526 -1.0861
   34mC      Cm  466   3.266   4.704  33.452 -0.3147 -1.0069 -0.0788
   35mR      Rm  467   3.521   4.843  33.276 -1.5124 -0.4401 -0.4548
   36mB      Bm  468   2.998   4.441  33.433  1.6366 -0.1246 -0.0431
   37mA      Am  469   2.812   4.134  33.429  0.4050 -0.4954 -0.3806
   38mB      Bm  470   2.827   3.768  33.409  0.3017 -0.6869  0.0245
   39mC      Cm  471   2.938   3.412  33.359 -0.0395  0.8953  0.0614
   40mC      Cm  472   3.199   3.100  33.441 -0.0539 -1.1457 -0.0418
   41mR      Rm  473   3.048   3.191  33.138 -0.1687 -0.2181 -0.8310
   42mB      Bm  474   3.495   2.914  33.573 -0.7562 -1.1139 -0.9100
   43mA      Am  475   3.848   2.848  33.633 -0.1911 -0.7201 -0.4561
   44mB      Bm  476   4.206   2.962  33.580  0.1035 -0.2362 -0.5674
   45mC      Cm  477   4.478   3.175  33.455  1.1538  0.2015  0.2133
   46mC      Cm  478   4.634   3.535  33.374 -1.8612 -0.0870  1.4125
   47mR      Rm  479   4.629   3.278  33.162 -1.2489  0.2200  0.4370
   48mB      Bm  480   4.622   3.919  33.388  0.9484 -0.1369 -0.1472
   49mA      Am  481   4.507   4.277  33.342 -0.2934  0.4566 -0.6629
   50mB      Bm  482   4.239   4.489  33.180  1.4113 -0.0593  0.2578
   51mC      Cm  483   3.945   4.603  32.984 -0.3126 -0.9015  0.1479
   52mC      Cm  484   3.556   4.628  32.851 -0.4706  0.4874 -1.4563
   53mR      Rm  485   3.834   4.647  32.664 -0.6471  0.6289 -0.8031
   54mB      Bm  486   3.206   4.506  32.849  0.0502  0.8449  0.4084
   55mA      Am  487   2.937   4.278  32.832 -0.4808  0.2987 -0.9052
   56mB      Bm  488   2.878   3.921  32.775  0.2344  0.1492  0.7146
   57mC      Cm  489   2.927   3.553  32.693  0.3562  0.0653  0.1501
   58mC      Cm  490   3.122   3.197  32.731  0.2396 -1.0646  1.0087
   59mR      Rm  491   2.974   3.318  32.450  1.1972 -1.7657  0.7600
   60mB      Bm  492   3.391   2.980  32.840  0.5248 -0.5642  0.2117
   61mA      Am  493   3.744   2.873  32.911 -0.3496 -0.3254  0.6669
   62mB      Bm  494   4.106   2.955  32.923  1.2288  0.3066 -0.7460
   63mC      Cm  495   4.407   3.157  32.845 -0.8448  0.7262 -0.2762
   64mC      Cm  496   4.639   3.490  32.801 -0.7611 -0.7566 -0.4180
   65mR      Rm  497   4.634   3.215  32.602  0.3263  0.3514 -1.1856
   66mB      Bm  498   4.715   3.853  32.825  1.2893  0.1084 -1.3153
   67mA      Am  499   4.675   4.222  32.756  0.4434 -0.7606  0.6480
   68mB      Bm  500   4.465   4.476  32.593 -1.1621  0.5308  0.3918
   69mC      Cm  501   4.180   4.618  32.412 -1.0029 -0.2221  0.6310
   70mC      Cm  502   3.792   4.672  32.292 -0.4222  1.0540  0.6328
   71mR      Rm  503   4.066   4.659  32.092  0.7817  0.4316  0.3695
   72mB      Bm  504   3.430   4.628  32.285 -0.1547  1.1143  0.6037
   73mA      Am  505   3.124   4.426  32.234 -0.2694  0.0286 -0.5910
   74mB      Bm  506   2.987   4.109  32.129 -0.1361  0.1950  0.5493
   75mC      Cm  507   2.956   3.755  31.991  0.2209 -0.8189  1.8606
   76mC      Cm  508   3.081   3.373  31.964  0.2007 -0.8018 -0.6235
   77mR      Rm  509   2.994   3.571  31.707  0.2133 -0.1008 -0.0809
   78mB      Bm  510   3.319   3.092  32.047  0.5853  0.5853 -0.9626
   79mA      Am  511   3.640   2.888  32.106  0.5771  1.0168  0.3523
   80mB      Bm  512   4.006   2.877  32.113  0.6859 -0.3984  0.3177
   81mC      Cm  513   4.358   2.991  32.086 -0.5800 -0.5897  0.0735
   82mC      Cm  514   4.649   3.273  32.119  0.7994 -0.9384  0.3069
   83mR      Rm  515   4.596   3.074  31.860 -1.9440 -2.4011  0.4813
   84mB      Bm  516   4.819   3.585  32.240 -1.3199  0.5033 -0.3661
   85mA      Am  517   4.912   3.937  32.266 -0.6600 -0.7818  0.9512
   86mB      Bm  518   4.828   4.262  32.106  0.6676  0.3265  0.1258
   87mC      Cm  519   4.670   4.517  31.877 -0.1209  0.6690 -1.2028
   88mC      Cm  520   4.373   4.659  31.626  0.1764 -0.0450  0.0334
   89mR      Rm  521   4.709   4.672  31.573 -0.6803 -0.2921  0.2830
   90mB      Bm  522   4.034   4.666  31.454 -0.4254 -1.0306  0.5177
   91mA      Am  523   3.749   4.569  31.239  1.0719 -0.9503 -0.9170
   92mB      Bm  524   3.602   4.297  31.037 -0.2783 -0.4913  0.2139
   93mC      Cm  525   3.579   3.984  30.846 -0.8071  0.1819 -0.0829
   94mC      Cm  526   3.645   3.581  30.809  1.0921  0.6498 -0.1940
   95mR      Rm  527   3.657   3.822  30.556  1.5212  1.5665  0.5672
   96mB      Bm  528   3.781   3.255  30.896  0.5722 -0.0879 -0.4216
   97mA      Am  529   3.971   2.967  31.001 -0.1156  0.0089  0.2284
   98mB      Bm  530   4.299   2.824  31.077  0.7521  0.8779  0.5247
   99mC      Cm  531   4.658   2.811  31.149 -0.3927  0.6887 -0.2817
  100mC      Cm  532   5.026   2.895  31.308  0.0707 -0.1131  0.1511
  101mR      Rm  533   4.961   2.761  31.005 -2.0194 -0.0388  0.5406
  102mB      Bm  534   5.287   3.102  31.472 -0.3695  0.4790  0.1343
  103mA      Am  535   5.517   3.400  31.549  0.9355  0.2140 -0.3222
  104mB      Bm  536   5.605   3.746  31.457  0.0843 -0.1566  0.0247
  105mC      Cm  537   5.596   4.078  31.298  0.8287 -1.1742  1.0557
  106mC      Cm  538   5.421   4.437  31.212 -0.0731 -1.5780  1.5835
  107mR      Rm  539   5.595   4.229  30.992  1.5324 -0.1807  0.0331
  108tB      Bt  540   5.140   4.670  31.210 -1.1467  0.2005  0.5992
    1hA      Ah  541   5.776   1.047  20.880  0.4125 -0.0664 -0.0799
    2mB      Bm  542   6.134   1.044  20.978 -0.5126 -0.3693 -0.5983
    3mC      Cm  543   6.463   1.161  21.091  0.1850 -0.5299 -0.0704
    4mC      Cm  544   6.687   1.408  21.323  0.0815 -0.0907  0.3619
    5mR      Rm  545   6.707   1.375  20.989 -0.4271 -0.3343  0.2107
    6mB      Bm  546   6.722   1.671  21.591 -1.2399 -0.1536 -0.3080
    7mA      Am  547   6.656   1.985  21.774 -0.7246 -0.6821 -0.1354
    8mB      Bm  548   6.467   2.308  21.788  1.2519  0.2012 -0.6046
    9mC      Cm  549   6.243   2.585  21.713  0.0138 -0.5921  0.4989
   10mC      Cm  550   5.884   2.752  21.603 -0.1740  0.3759 -0.6687
   11mR      Rm  551   6.194   2.873  21.530  0.2416 -0.1767  0.6732
   12mB      Bm  552   5.537   2.723  21.456  0.1626  0.1273  0.6577
   13mA      Am  553   5.264   2.622  21.228 -0.5391  0.4374 -0.0784
   14mB      Bm  554   5.170   2.412  20.939 -0.3909 -0.2412 -0.1372
   15mC      Cm  555   5.191   2.181  20.659 -0.1015  0.0141  1.2743
   16mC      Cm  556   5.360   1.853  20.468 -1.1554 -0.2277  0.0905
   17mR      Rm  557   5.324   2.159  20.338  0.6578 -0.9812 -2.1492
   18mB      Bm  558   5.584   1.570  20.427  0.4333  0.1823 -0.1841
   19mA      Am  559   5.888   1.362  20.427 -0.4680  0.3014 -0.3152
   20mB      Bm  560   6.250   1.366  20.518 -0.3952 -0.0852 -0.1222
   21mC      Cm  561   6.588   1.477  20.631 -0.1306 -0.4040  0.1543
   22mC      Cm  562   6.851   1.704  20.850  0.3913  0.5822  0.3950
   23mR      Rm  563   6.843   1.655  20.518 -1.2172 -0.1315  0.5877
   24mB      Bm  564   6.934   1.943  21.122 -0.2265 -0.1258  0.2868
   25mA      Am  565   6.917   2.253  21.326  0.2294 -0.2106 -0.1155
   26mB      Bm  566   6.756   2.590  21.376 -0.5313 -0.6127  0.4144
   27mC      Cm  567   6.552   2.888  21.325 -0.4394  1.2527 -0.8739
   28mC      Cm  568   6.203   3.083  21.249 -0.2725 -0.4663 -0.7076
   29mR      Rm  569   6.515   3.172  21.154 -0.3404 -1.1898  1.5211
   30mB      Bm  570   5.860   3.077  21.118  0.0963 -0.0639  0.8659
   31mA      Am  571   5.570   3.000  20.905  0.0494 -0.1047 -0.5488
   32mB      Bm  572   5.454   2.810  20.608 -0.7356  0.2114  0.3657
   33mC      Cm  573   5.466   2.580  20.309  0.1708  0.1400  0.5888
   34mC      Cm  574   5.596   2.262  20.099  0.6788  0.5048  0.6592
   35mR      Rm  575   5.530   2.575  19.981 -0.3353  0.5437  0.1299
   36mB      Bm  576   5.796   1.954  20.032 -0.4337 -0.4093  0.4881
   37mA      Am  577   6.086   1.725  20.006 -0.1500 -0.3231  0.2190
   38mB      Bm  578   6.455   1.700  20.075 -0.7429 -0.1991  0.7485
   39mC      Cm  579   6.799   1.804  20.171  0.9515  0.1301  1.0346
   40mC      Cm  580   7.061   2.040  20.387 -0.6110  0.1579  0.0285
   41mR      Rm  581   7.052   2.006  20.048 -1.1916  0.2459 -0.2445
   42mB      Bm  582   7.155   2.259  20.663 -0.0892  0.3826 -0.0114
   43mA      Am  583   7.143   2.551  20.898 -0.2042  0.8769  0.4274
   44mB      Bm  584   7.028   2.886  20.974  0.9846  0.1240 -0.5345
   45mC      Cm  585   6.856   3.208  20.944  0.3690 -0.8015 -0.4361
   46mC      Cm  586   6.519   3.421  20.864 -1.2420  0.0219 -0.4535
   47mR      Rm  587   6.841   3.502  20.761  0.2780 -0.1375  0.7908
   48mB      Bm  588   6.160   3.442  20.751  0.0711 -0.1368  0.0504
   49mA      Am  589   5.856   3.376  20.566  0.1236  0.1070  0.5112
   50mB      Bm  590   5.704   3.212  20.279  0.9484 -0.4761  0.6575
   51mC      Cm  591   5.688   3.020  19.969  0.3414 -0.3161  0.0454
   52mC      Cm  592   5.775   2.711  19.721  0.9333  0.5077 -0.6019
   53mR      Rm  593   5.749   3.038  19.638 -0.5914 -1.2883 -0.4770
   54mB      Bm  594   5.937   2.390  19.619 -0.5087 -0.1167  0.0869
   55mA      Am  595   6.212   2.144  19.566  0.3041  0.4123 -0.2992
   56mB      Bm  596   6.579   2.076  19.593  0.0059 -0.5289 -0.5458
   57mC      Cm  597   6.932   2.149  19.650  0.2959  0.3344  0.6067
   58mC      Cm  598   7.221   2.325  19.874  0.5439 -0.4972  0.0720
   59mR      Rm  599   7.201   2.315  19.533  0.2495  0.5524 -0.6232
   60mB      Bm  600   7.342   2.527  20.158 -0.5764  0.0371 -0.0082
   61mA      Am  601   7.380   2.812  20.386 -0.6183 -0.4661  0.0984
   62mB      Bm  602   7.289   3.155  20.485  1.0474  0.8936  0.5519
   63mC      Cm  603   7.118   3.480  20.476 -0.7867 -0.2111 -0.8505
   64mC      Cm  604   6.777   3.689  20.424  0.4293  0.1651  0.5546
   65mR      Rm  605   7.090   3.774  20.324 -0.7232  0.1987  0.3533
   66mB      Bm  606   6.420   3.727  20.332  0.0254  0.5666  0.6002
   67mA      Am  607   6.090   3.693  20.160 -0.6538 -0.0802  0.3317
   68mB      Bm  608   5.916   3.546  19.864 -0.0822 -0.2087 -0.6284
   69mC      Cm  609   5.873   3.366  19.547 -0.0601  1.2734  0.3659
   70mC      Cm  610   5.958   3.048  19.298  0.5284 -0.1371  0.9462
   71mR      Rm  611   5.938   3.370  19.222  0.0517  0.2217  0.7263
   72mB      Bm  612   6.137   2.736  19.208  0.1637 -0.0393 -0.8853
   73mA      Am  613   6.406   2.491  19.158  0.6457 -0.1910  0.1423
   74mB      Bm  614   6.776   2.420  19.161  0.6087  0.3850  0.2442
   75mC      Cm  615   7.137   2.473  19.214 -0.1879  0.6702 -0.5378
   76mC      Cm  616   7.454   2.610  19.442  0.3364 -0.1051  0.0455
   77mR      Rm  617   7.423   2.610  19.108 -0.7454 -0.1804  0.1032
   78mB      Bm  618   7.604   2.810  19.735 -0.1657 -0.3704 -0.0791
   79mA      Am  619   7.669   3.081  19.975 -0.4610  0.1191 -0.0992
   80mB      Bm  620   7.557   3.425  20.055  0.1099 -0.1738 -0.2087
   81mC      Cm  621   7.379   3.747  20.031 -0.0280  0.1497 -0.4798
   82mC      Cm  622   7.061   4.005  19.998 -1.2620  0.7299 -0.6457
   83mR      Rm  623   7.361   4.036  19.855  0.6193  0.2867  1.4816
   84mB      Bm  624   6.707   4.087  19.941  0.8058 -0.1851  0.9789
   85mA      Am  625   6.366   4.070  19.764  0.5647  0.0778 -1.2592
   86mB      Bm  626   6.172   3.945  19.484  0.6185 -0.6734 -0.5462
   87mC      Cm  627   6.093   3.767  19.169  0.1727 -0.0170  0.5652
   88mC      Cm  628   6.114   3.447  18.905  0.4196 -0.5035  0.3733
   89mR      Rm  629   6.135   3.770  18.831 -0.5578 -0.3288 -0.2034
   90mB      Bm  630   6.232   3.114  18.787 -0.2529  0.8167  0.0307
   91mA      Am  631   6.473   2.846  18.690 -0.2020 -0.7721 -0.3087
   92mB      Bm  632   6.826   2.741  18.656  0.8387  0.7735 -0.0046
   93mC      Cm  633   7.194   2.760  18.659 -0.2362 -0.7380 -0.0254
   94mC      Cm  634   7.553   2.866  18.829  0.1653 -0.4674 -0.4455
   95mR      Rm  635   7.458   2.882  18.500 -1.8087  0.4367 -0.1781
   96mB      Bm  636   7.765   2.999  19.098 -0.0475 -0.0104  1.1752
   97mA      Am  637   7.893   3.241  19.345  0.1311 -0.4786  0.1249
   98mB      Bm  638   7.852   3.585  19.477 -0.0881  0.1809 -0.5485
   99mC      Cm  639   7.708   3.936  19.506 -0.3649 -0.6654  0.3073
  100mC      Cm  640   7.403   4.212  19.510  0.3204  0.6959 -0.8107
  101mR      Rm  641   7.689   4.224  19.330 -0.0499  1.2658  0.1864
  102mB      Bm  642   7.055   4.324  19.481  0.0551 -0.0310  0.3075
  103mA      Am  643   6.707   4.368  19.349 -1.0300  0.3167 -0.1943
  104mB      Bm  644   6.507   4.267  19.067  0.4109 -0.4226 -0.3134
  105mC      Cm  645   6.389   4.114  18.742  0.2287  0.6742  0.2770
  106mC      Cm  646   6.310   3.815  18.476  0.5241 -0.3288 -0.8164
  107mR      Rm  647   6.402   4.132  18.402 -0.5983 -0.7094  0.2395
  108tB      Bt  648   6.115   3.524  18.350 -0.1262  0.1810  0.0724
    1hA      Ah  649  12.088   4.487  25.728  1.1611  0.0522 -0.8732
    2mB      Bm  650  12.369   4.594  25.517 -0.3860  0.3734  1.6144
    3mC      Cm  651  12.657   4.793  25.374  0.4203  0.3814 -0.6880
    4mC      Cm  652  13.012   5.001  25.399 -1.4828 -0.4502  0.2960
    5mR      Rm  653  12.732   5.096  25.237  1.2137 -0.0702 -0.3021
    6mB      Bm  654  13.322   5.124  25.548 -0.3824  0.4379 -0.0720
    7mA      Am  655  13.547   5.299  25.784 -0.4208 -0.5430  0.2232
    8mB      Bm  656  13.580   5.525  26.075  0.7795 -0.0591 -0.3860
    9mC      Cm  657  13.519   5.746  26.364 -0.3230 -0.5626  0.8250
   10mC      Cm  658  13.320   5.854  26.711 -0.1210 -0.1751 -1.1969
   11mR      Rm  659  13.431   6.054  26.445  0.3071  0.7345 -0.7901
   12mB      Bm  660  13.035   5.817  26.945  0.5519  0.0000  1.0817
   13mA      Am  661  12.690   5.778  27.086 -0.2079  0.4841  0.0816
   14mB      Bm  662  12.329   5.716  27.013 -0.6151 -1.1576  0.5993
   15mC      Cm  663  12.013   5.664  26.826  0.0662  0.2069  1.0780
   16mC      Cm  664  11.789   5.530  26.511 -1.0137  1.6136 -0.4549
   17mR      Rm  665  11.766   5.825  26.670  0.2063 -0.4179  0.3814
   18mB      Bm  666  11.731   5.350  26.200  0.4148  0.0605  0.8473
   19mA      Am  667  11.770   5.244  25.845 -0.3978 -0.1256  0.0824
   20mB      Bm  668  11.946   5.260  25.517 -0.4156  0.0982 -0.0830
   21mC      Cm  669  12.200   5.376  25.272  1.0902 -0.0522  0.1672
   22mC      Cm  670  12.580   5.523  25.190 -0.5217  0.3859 -0.3200
   23mR      Rm  671  12.279   5.649  25.086 -0.1744  1.4316  0.4851
   24mB      Bm  672  12.935   5.596  25.262  0.1929  0.1978  0.0970
   25mA      Am  673  13.249   5.715  25.423 -0.2107  0.2369  0.4033
   26mB      Bm  674  13.382   5.943  25.680 -0.0549 -0.4997  0.5210
   27mC      Cm  675  13.401   6.190  25.949  0.4333  0.1940 -1.0014
   28mC      Cm  676  13.277   6.350  26.301 -0.8524  0.4760 -0.1137
   29mR      Rm  677  13.386   6.518  26.025 -0.5202  1.0432  0.9922
   30mB      Bm  678  13.053   6.371  26.599  0.0961  1.0317  0.5542
   31mA      Am  679  12.744   6.399  26.798  0.4972 -0.1554  0.1000
   32mB      Bm  680  12.369   6.388  26.802  0.1974  0.7152  0.1698
   33mC      Cm  681  12.015   6.334  26.689 -0.0201 -0.2077 -0.5067
   34mC      Cm  682  11.751   6.172  26.424  0.3259  0.0257 -0.1337
   35mR      Rm  683  11.762   6.491  26.526 -1.1346 -0.5604 -0.7585
   36mB      Bm  684  11.655   5.968  26.127  0.4212  0.1220 -0.9969
   37mA      Am  685  11.643   5.830  25.788 -0.1927 -0.1040  0.1846
   38mB      Bm  686  11.808   5.847  25.451 -0.2398  0.5123  0.5420
   39mC      Cm  687  12.035   5.935  25.170 -0.7656 -0.7929  0.7410
   40mC      Cm  688  12.409   6.030  25.035  0.4133  0.7353 -0.2759
   41mR      Rm  689  12.121   6.183  24.953 -0.5007 -0.9566 -0.7267
   42mB      Bm  690  12.771   6.107  25.076  0.3618 -0.7210  0.2507
   43mA      Am  691  13.068   6.262  25.237 -0.2295 -0.6403 -0.9182
   44mB      Bm  692  13.219   6.492  25.486  0.3499 -0.0971  0.2846
   45mC      Cm  693  13.223   6.750  25.759  0.3660 -1.1184  0.8083
   46mC      Cm  694  13.109   6.907  26.122  0.1721  0.0430  0.6418
   47mR      Rm  695  13.172   7.076  25.843  1.4946 -0.1052 -0.3511
   48mB      Bm  696  12.898   6.913  26.427  0.3790  0.0225  0.0422
   49mA      Am  697  12.596   6.909  26.640 -0.5185  0.6293  0.4603
   50mB      Bm  698  12.230   6.896  26.647  0.4764  0.8971  0.0942
   51mC      Cm  699  11.878   6.909  26.531  1.0039 -0.1351 -0.3062
   52mC      Cm  700  11.578   6.787  26.278  1.3492 -0.7600  0.0126
   53mR      Rm  701  11.631   7.104  26.411  0.1178 -0.2044 -0.6218
   54mB      Bm  702  11.425   6.592  25.983 -0.2274  0.3359  0.4362
   55mA      Am  703  11.373   6.477  25.632 -0.1647 -0.2020  0.1320
   56mB      Bm  704  11.528   6.468  25.309 -0.4128  0.2559  0.2297
   57mC      Cm  705  11.756   6.532  25.021  0.0716  0.4306  0.5964
   58mC      Cm  706  12.130   6.615  24.872 -1.0762 -0.2428 -0.7293
   59mR      Rm  707  11.850   6.800  24.824 -0.3641 -0.6276 -0.5669
   60mB      Bm  708  12.501   6.647  24.894  0.0767 -0.2403  0.4346
   61mA      Am  709  12.834   6.760  24.999 -0.4361  0.3513  0.7887
   62mB      Bm  710  13.021   6.988  25.228  1.4188  0.0949 -0.1581
   63mC      Cm  711  13.083   7.255  25.466 -0.1975  0.9530  1.5701
   64mC      Cm  712  13.044   7.465  25.814  0.2242  0.8785 -0.1868
   65mR      Rm  713  13.079   7.580  25.512  0.3171  0.0233  0.5566
   66mB      Bm  714  12.880   7.517  26.146  0.4393 -1.2077 -0.0986
   67mA      Am  715  12.605   7.554  26.389  0.7054  0.0118 -0.4002
   68mB      Bm  716  12.237   7.554  26.456  0.5544 -0.8167  0.4493
   69mC      Cm  717  11.864   7.553  26.393  0.6727 -0.0335  0.1407
   70mC      Cm  718  11.533   7.414  26.190 -0.9852 -1.0489 -0.4632
   71mR      Rm  719  11.604   7.736  26.274 -1.7193  1.1647  0.8665
   72mB      Bm  720  11.366   7.207  25.939  0.3630 -0.9126 -0.1273
   73mA      Am  721  11.308   7.058  25.598  0.5191 -0.2020 -0.1883
   74mB      Bm  722  11.445   7.045  25.257 -0.4233 -0.2534 -0.3120
   75mC      Cm  723  11.666   7.098  24.959  0.6687  0.8969 -0.9650
   76mC      Cm  724  12.010   7.141  24.759  0.1012  0.7811 -0.5474
   77mR      Rm  725  11.732   7.324  24.726 -0.7129 -0.5549  0.6444
   78mB      Bm  726  12.378   7.175  24.718  0.5234  0.1769  0.0465
   79mA      Am  727  12.728   7.296  24.779  0.4309  0.4774  0.0495
   80mB      Bm  728  12.934   7.534  24.983  0.0397  0.5352  0.3005
   81mC      Cm  729  12.997   7.806  25.227 -0.7348  0.0738 -0.2432
   82mC      Cm  730  12.941   8.008  25.578  0.0844 -0.1964 -0.0276
   83mR      Rm  731  12.999   8.138  25.274 -0.2442 -0.5220 -1.4327
   84mB      Bm  732  12.766   8.068  25.893  0.0740  0.1551 -0.1270
   85mA      Am  733  12.495   8.097  26.147  0.0541 -0.6979 -0.1818
   86mB      Bm  734  12.125   8.114  26.219 -0.2652 -0.7466 -0.5772
   87mC      Cm  735  11.764   8.129  26.171  0.5284 -0.5390  0.6019
   88mC      Cm  736  11.401   8.015  26.026  0.3390  0.1435 -1.1620
   89mR      Rm  737  11.512   8.333  26.070 -0.5633 -0.6351 -0.8865
   90mB      Bm  738  11.201   7.785  25.829  0.6896 -0.5825  0.1293
   91mA      Am  739  11.084   7.591  25.532  0.1369 -0.4578  0.3196
   92mB      Bm  740  11.120   7.535  25.154  0.2186  0.8128  0.1512
   93mC      Cm  741  11.252   7.569  24.810 -0.7182  1.0411 -0.6670
   94mC      Cm  742  11.575   7.621  24.569  0.4030 -0.8541  0.2231
   95mR      Rm  743  11.272   7.779  24.540  2.2047  0.2081 -1.2274
   96mB      Bm  744  11.934   7.671  24.491 -0.2298  0.4169  0.0135
   97mA      Am  745  12.289   7.795  24.516 -0.0029 -0.1044 -0.1700
   98mB      Bm  746  12.519   8.025  24.685 -1.1700 -0.4950  0.6873
   99mC      Cm  747  12.685   8.271  24.899 -0.4408 -0.5746  0.2279
  100mC      Cm  748  12.751   8.477  25.248  0.2088 -0.1569  0.5018
  101mR      Rm  749  12.722   8.607  24.938  0.2132  1.2305 -0.2659
  102mB      Bm  750  12.701   8.551  25.610 -0.0522  0.2682 -0.4454
  103mA      Am  751  12.517   8.618  25.930 -0.8501  0.5247 -0.5607
  104mB      Bm  752  12.186   8.679  26.057  0.4096 -0.2952 -0.1527
  105mC      Cm  753  11.820   8.731  26.051 -0.3825  0.1296 -0.0577
  106mC      Cm  754  11.428   8.656  25.931  0.3018 -0.7022 -0.2313
  107mR      Rm  755  11.578   8.957  25.948  0.6113  0.2590  0.4738
  108tB      Bt  756  11.169   8.462  25.750 -0.0487  0.1095 -0.7562
    1hA      Ah  757   1.234   7.189  27.008 -0.0297  1.0927 -0.2793
    2mB      Bm  758   0.897   7.088  26.872  0.0308 -0.9075  0.5996
    3mC      Cm  759   0.536   7.005  26.875 -0.0311  0.6959 -0.5472
    4mC      Cm  760   0.161   7.042  27.035  0.1342 -0.5091  0.0148
    5mR      Rm  761   0.340   6.760  26.992 -0.9861  1.5897  0.3494
    6mB      Bm  762  -0.093   7.207  27.249 -0.0621 -1.0001 -0.3597
    7mA      Am  763  -0.246   7.339  27.543  0.2289  0.2616 -0.2436
    8mB      Bm  764  -0.224   7.412  27.909  0.2384  0.1159 -1.0485
    9mC      Cm  765  -0.068   7.420  28.242  0.5008  0.0233 -0.2097
   10mC      Cm  766   0.238   7.483  28.514  1.2815  0.6455 -0.1923
   11mR      Rm  767   0.017   7.218  28.498 -0.3662  0.3809  1.2548
   12mB      Bm  768   0.582   7.568  28.605 -0.4812  0.9510  1.0683
   13mA      Am  769   0.951   7.551  28.589 -0.6062  0.4977 -0.7216
   14mB      Bm  770   1.249   7.399  28.421 -0.4737  0.4289  0.4237
   15mC      Cm  771   1.448   7.188  28.189 -0.6078  0.0861 -0.1646
   16mC      Cm  772   1.525   6.990  27.839  0.3506 -0.5433 -0.1217
   17mR      Rm  773   1.538   6.861  28.152 -0.2131  0.0802 -1.2716
   18mB      Bm  774   1.404   6.877  27.506 -0.4942  0.3911 -0.4459
   19mA      Am  775   1.166   6.746  27.262 -0.1619  0.3175  0.0718
   20mB      Bm  776   0.842   6.613  27.153  0.5090 -0.8429 -0.4690
   21mC      Cm  777   0.497   6.478  27.164 -0.2238  0.4612  0.0281
   22mC      Cm  778   0.112   6.492  27.295  1.6677  0.4770 -0.6129
   23mR      Rm  779   0.311   6.223  27.278 -2.1452  0.9791  0.2210
   24mB      Bm  780  -0.170   6.605  27.503 -0.8431  0.1892 -0.5109
   25mA      Am  781  -0.357   6.723  27.804 -0.1516 -0.6368 -0.3179
   26mB      Bm  782  -0.352   6.825  28.161 -0.0725  0.6204 -1.2544
   27mC      Cm  783  -0.210   6.861  28.502  0.6523 -1.3019  1.1092
   28mC      Cm  784   0.088   6.944  28.761  0.2553 -0.1198  0.5975
   29mR      Rm  785  -0.139   6.691  28.791 -0.1666  0.1442 -0.2985
   30mB      Bm  786   0.444   7.031  28.848  0.3405 -0.0766 -0.5653
   31mA      Am  787   0.810   7.033  28.856 -0.3605  0.2955  0.1646
   32mB      Bm  788   1.119   6.882  28.733 -0.0649 -0.5202 -0.1681
   33mC      Cm  789   1.352   6.647  28.567 -0.5260 -0.0406  0.0732
   34mC      Cm  790   1.482   6.405  28.259 -1.0154 -0.4865 -0.1876
   35mR      Rm  791   1.500   6.328  28.579 -0.1646 -0.4218 -0.3409
   36mB      Bm  792   1.416   6.250  27.927 -0.0459 -0.5410  0.2859
   37mA      Am  793   1.260   6.087  27.632 -0.4010  0.2619  0.2881
   38mB      Bm  794   0.963   5.962  27.463  0.4768  0.2753 -0.3303
   39mC      Cm  795   0.604   5.875  27.421 -0.2645  0.0390  0.2802
   40mC      Cm  796   0.203   5.905  27.492 -1.5704 -0.1734 -0.3064
   41mR      Rm  797   0.376   5.617  27.457  0.3260 -0.4601  0.3172
   42mB      Bm  798  -0.092   6.054  27.657  0.7467  0.4103 -0.3439
   43mA      Am  799  -0.350   6.193  27.881 -1.2890 -0.0836  0.2489
   44mB      Bm  800  -0.454   6.268  28.226  0.0704 -0.1213  1.4667
   45mC      Cm  801  -0.445   6.286  28.600 -0.8573  1.0813 -0.4793
   46mC      Cm  802  -0.258   6.365  28.959  0.4789  0.0515  0.5147
   47mR      Rm  803  -0.454   6.093  28.873 -0.3747 -0.2081  1.2004
   48mB      Bm  804   0.044   6.462  29.151 -0.5594  0.0980 -0.7355
   49mA      Am  805   0.387   6.471  29.273  0.0235 -0.2596  0.5850
   50mB      Bm  806   0.733   6.349  29.256 -0.1398 -0.0920 -0.6723
   51mC      Cm  807   1.017   6.145  29.121 -0.1861  0.5368 -0.6497
   52mC      Cm  808   1.202   5.977  28.797 -0.5868  0.5281 -1.2481
   53mR      Rm  809   1.123   5.835  29.101  0.6076 -0.1029 -0.6666
   54mB      Bm  810   1.254   5.886  28.436 -0.6305 -0.5332  0.5775
   55mA      Am  811   1.178   5.750  28.106  0.3823 -0.1008 -0.7490
   56mB      Bm  812   0.923   5.590  27.896  0.1402 -0.2106  0.4797
   57mC      Cm  813   0.604   5.432  27.780  0.5424  0.5218 -0.4975
   58mC      Cm  814   0.192   5.412  27.762  0.4354  0.2789  0.3334
   59mR      Rm  815   0.397   5.157  27.826 -0.2505 -0.9183  0.0057
   60mB      Bm  816  -0.147   5.550  27.846  0.8854 -0.7555  0.5944
   61mA      Am  817  -0.422   5.678  28.059 -0.0677 -0.5158  0.0737
   62mB      Bm  818  -0.517   5.750  28.409  0.1182  0.1215  0.0363
   63mC      Cm  819  -0.495   5.760  28.786 -1.1337 -0.5181  0.3701
   64mC      Cm  820  -0.290   5.817  29.131 -0.2947  0.5564  0.0379
   65mR      Rm  821  -0.496   5.556  29.061 -0.4922 -0.5725 -0.6310
   66mB      Bm  822   0.005   5.922  29.322  0.6298  0.0835  0.2252
   67mA      Am  823   0.347   5.947  29.462  0.5049  0.9388  0.0808
   68mB      Bm  824   0.684   5.801  29.487 -1.0126  0.3101  0.5813
   69mC      Cm  825   0.958   5.556  29.437  0.7175 -0.3696 -0.9946
   70mC      Cm  826   1.181   5.299  29.223 -0.2111 -0.6266 -1.0374
   71mR      Rm  827   1.035   5.244  29.518 -0.8836  1.3977 -0.1419
   72mB      Bm  828   1.279   5.136  28.902  0.5531  0.0770 -0.0968
   73mA      Am  829   1.275   4.964  28.572  0.1977 -0.8226 -0.1424
   74mB      Bm  830   1.065   4.828  28.312 -0.4266  1.1725  0.3836
   75mC      Cm  831   0.747   4.719  28.159 -0.0287  0.0113 -0.0521
   76mC      Cm  832   0.349   4.753  28.079  0.7639  0.1097 -0.5408
   77mR      Rm  833   0.507   4.478  28.152 -2.0532  0.5221 -1.4169
   78mB      Bm  834   0.023   4.920  28.121 -0.0832 -0.5587 -0.7418
   79mA      Am  835  -0.271   5.083  28.284 -0.1576 -0.6806  0.5250
   80mB      Bm  836  -0.467   5.185  28.580  0.7738  1.2000 -0.0802
   81mC      Cm  837  -0.557   5.209  28.930 -0.3571 -0.2465  0.1559
   82mC      Cm  838  -0.489   5.273  29.328  0.2774 -0.7232 -0.1901
   83mR      Rm  839  -0.678   5.030  29.187  0.3351  1.1501  0.6000
   84mB      Bm  840  -0.260   5.333  29.608 -0.2189  0.4557 -0.2437
   85mA      Am  841   0.036   5.288  29.829 -0.8082 -0.3404 -0.5383
   86mB      Bm  842   0.346   5.091  29.860  0.2909  0.5591  0.7337
   87mC      Cm  843   0.592   4.834  29.775  0.1850  1.3247  0.5725
   88mC      Cm  844   0.817   4.578  29.541 -0.3671 -0.1004  0.5073
   89mR      Rm  845   0.632   4.497  29.799 -1.7534 -0.0030 -1.5351
   90mB      Bm  846   0.949   4.466  29.219  0.0378 -0.1346  0.6119
   91mA      Am  847   0.974   4.354  28.863  0.8522 -0.3378  0.1059
   92mB      Bm  848   0.779   4.255  28.564  0.5698  0.5591 -0.2389
   93mC      Cm  849   0.500   4.155  28.349 -0.1756  0.0968 -0.0167
   94mC      Cm  850   0.130   4.185  28.176  0.2342 -0.0545 -0.2748
   95mR      Rm  851   0.281   3.899  28.269  1.5406  0.4190 -0.0684
   96mB      Bm  852  -0.214   4.313  28.113 -0.6000 -0.1508  0.3543
   97mA      Am  853  -0.558   4.425  28.178 -0.1742  0.5828  0.0977
   98mB      Bm  854  -0.821   4.485  28.436  0.1352  0.5356 -0.2638
   99mC      Cm  855  -1.007   4.498  28.751 -0.1802  0.1994  0.5006
  100mC      Cm  856  -1.043   4.577  29.151 -0.0718 -0.5812 -1.1148
  101mR      Rm  857  -1.178   4.318  28.989  0.4198  0.1592  0.7338
  102mB      Bm  858  -0.898   4.641  29.480 -1.5295 -0.1416 -0.3416
  103mA      Am  859  -0.670   4.628  29.776  0.1978 -0.5423 -0.1144
  104mB      Bm  860  -0.367   4.483  29.932  0.3050  0.1483 -0.2251
  105mC      Cm  861  -0.073   4.264  30.005 -0.2757  0.1583  0.4650
  106mC      Cm  862   0.266   4.086  29.880  0.0420  0.6440  0.7328
  107mR      Rm  863   0.018   3.952  30.079 -1.2753 -0.3694 -1.2886
  108tB      Bt  864   0.527   3.984  29.642 -0.6457 -0.3516 -0.5182
    1hA      Ah  865   3.520   4.108  21.276  0.3656  0.0136  0.1848
    2mB      Bm  866   3.675   4.187  20.952 -0.3214  0.0784  0.1882
    3mC      Cm  867   3.784   4.375  20.647  0.1049  0.0658  0.4391
    4mC      Cm  868   3.952   4.705  20.474  0.0772  0.0618 -0.1260
    5mR      Rm  869   3.698   4.517  20.343  1.7972 -0.6022  1.0402
    6mB      Bm  870   4.079   5.059  20.475  0.1238 -0.3923 -0.8000
    7mA      Am  871   4.129   5.417  20.543 -0.0870  1.1132 -0.3561
    8mB      Bm  872   4.015   5.714  20.708  0.1998 -0.1798 -0.0488
    9mC      Cm  873   3.810   5.940  20.926  0.3174 -0.4446 -0.3252
   10mC      Cm  874   3.608   6.018  21.274 -0.7414  0.1185  0.0161
   11mR      Rm  875   3.507   6.091  20.958  0.4662 -0.0699 -0.9824
   12mB      Bm  876   3.473   5.948  21.609  0.1882  1.0241 -0.2617
   13mA      Am  877   3.298   5.786  21.894  0.4341  0.0856 -0.4572
   14mB      Bm  878   3.086   5.506  22.013 -1.0648 -0.0869 -0.6056
   15mC      Cm  879   2.874   5.196  22.000  0.6453  0.0541 -0.0835
   16mC      Cm  880   2.785   4.829  21.853  0.1253 -0.7890  0.4876
   17mR      Rm  881   2.569   5.090  21.915 -1.2889  1.0301 -0.7222
   18mB      Bm  882   2.851   4.515  21.659  0.3686  0.9547 -1.5376
   19mA      Am  883   2.937   4.287  21.379 -0.5765 -0.4739  0.5093
   20mB      Bm  884   3.034   4.286  21.020  0.3556 -0.1545  0.0198
   21mC      Cm  885   3.109   4.395  20.673  0.5405 -0.1308 -0.4960
   22mC      Cm  886   3.283   4.648  20.400 -0.5865 -0.1753 -0.1270
   23mR      Rm  887   2.978   4.517  20.391 -0.5648 -1.0931  0.2608
   24mB      Bm  888   3.459   4.957  20.307 -0.5949 -0.0733 -0.6666
   25mA      Am  889   3.574   5.308  20.272  0.6317  0.4184 -0.0350
   26mB      Bm  890   3.502   5.647  20.394  0.3948  0.4835  0.5489
   27mC      Cm  891   3.330   5.930  20.569 -0.4967 -0.1099  0.0478
   28mC      Cm  892   3.158   6.120  20.884  1.2178  0.7925 -1.0999
   29mR      Rm  893   3.072   6.126  20.552  0.5645 -0.2866  0.4715
   30mB      Bm  894   3.032   6.130  21.234  0.0353 -1.5148  1.2329
   31mA      Am  895   2.852   6.057  21.540  0.1948 -0.1918 -1.2003
   32mB      Bm  896   2.625   5.814  21.682 -0.5386  0.0953 -0.3817
   33mC      Cm  897   2.401   5.515  21.714  0.2763  1.3174  0.2749
   34mC      Cm  898   2.301   5.118  21.645 -0.9906 -1.3382  0.6018
   35mR      Rm  899   2.103   5.391  21.644  0.1519 -0.1189  0.3782
   36mB      Bm  900   2.377   4.786  21.495  0.3650 -0.0984 -0.3743
   37mA      Am  901   2.450   4.525  21.241 -0.5475 -0.1006  0.4005
   38mB      Bm  902   2.521   4.466  20.878 -0.3945 -0.0491 -0.1799
   39mC      Cm  903   2.569   4.546  20.523 -0.2404  0.4507  0.3854
   40mC      Cm  904   2.727   4.758  20.213  0.0036  0.1236  1.0980
   41mR      Rm  905   2.421   4.618  20.237  1.0024 -0.2761 -0.0043
   42mB      Bm  906   2.902   5.054  20.058  0.5467  0.6269 -0.7682
   43mA      Am  907   2.985   5.408  19.998  0.3879 -0.0145 -0.3369
   44mB      Bm  908   2.917   5.759  20.091  0.2015  0.0437 -0.2467
   45mC      Cm  909   2.786   6.066  20.249  0.0170 -0.1410  0.4556
   46mC      Cm  910   2.662   6.273  20.574 -0.1583 -0.3583 -0.5202
   47mR      Rm  911   2.544   6.295  20.265  0.7063 -0.4756  1.5099
   48mB      Bm  912   2.561   6.310  20.928  0.5373  0.4846  1.0771
   49mA      Am  913   2.381   6.251  21.244 -0.1230 -0.4976 -1.1264
   50mB      Bm  914   2.121   6.042  21.401  0.0136 -0.9500 -0.2895
   51mC      Cm  915   1.862   5.780  21.443  0.1905 -1.0193 -0.0119
   52mC      Cm  916   1.734   5.392  21.396 -0.2494  0.4983 -0.3510
   53mR      Rm  917   1.553   5.677  21.348  0.2567  1.2567 -0.0756
   54mB      Bm  918   1.799   5.042  21.280  0.2937 -0.1837 -0.2061
   55mA      Am  919   1.888   4.769  21.051 -0.4443  0.5994 -0.8755
   56mB      Bm  920   1.982   4.680  20.701  0.4018  0.1176 -0.2187
   57mC      Cm  921   2.069   4.690  20.341  0.1315 -0.5463  0.5619
   58mC      Cm  922   2.228   4.880  20.010 -0.0886  0.3475 -0.6672
   59mR      Rm  923   1.928   4.724  20.036 -0.1738 -0.0855  0.5308
   60mB      Bm  924   2.392   5.150  19.835  0.3694 -0.2686 -0.7327
   61mA      Am  925   2.489   5.488  19.732  0.1756 -0.3291  0.0045
   62mB      Bm  926   2.440   5.854  19.780 -0.2433 -0.2507 -0.3445
   63mC      Cm  927   2.291   6.174  19.900  1.2348  0.1668  0.0635
   64mC      Cm  928   2.157   6.426  20.197 -0.3338  0.3431 -0.0958
   65mR      Rm  929   2.025   6.380  19.892 -1.1936  0.6668  0.0805
   66mB      Bm  930   2.059   6.489  20.545 -0.4776 -0.7895  0.4488
   67mA      Am  931   1.892   6.449  20.872 -0.4832  0.3574 -0.1248
   68mB      Bm  932   1.653   6.241  21.072 -0.2136  0.2074  0.0453
   69mC      Cm  933   1.411   5.964  21.143 -0.2571  1.2962  0.9751
   70mC      Cm  934   1.291   5.574  21.125 -0.0941  0.1212  0.7193
   71mR      Rm  935   1.102   5.859  21.071 -1.0582 -0.4156 -0.8401
   72mB      Bm  936   1.289   5.208  21.045 -0.1429 -0.2851  0.4085
   73mA      Am  937   1.318   4.888  20.850 -0.7687 -0.1943 -0.1643
   74mB      Bm  938   1.400   4.755  20.525  0.2256  0.4303 -0.0949
   75mC      Cm  939   1.482   4.719  20.159 -0.1563 -0.0600  0.7817
   76mC      Cm  940   1.658   4.826  19.804 -0.8643 -0.6159 -0.4307
   77mR      Rm  941   1.335   4.738  19.856  0.1606  0.6976  1.1360
   78mB      Bm  942   1.872   5.062  19.614  0.0461 -0.3707 -0.4254
   79mA      Am  943   2.000   5.387  19.481  0.2446 -0.3718  0.3189
   80mB      Bm  944   1.959   5.765  19.477  0.3113 -0.0485 -0.6561
   81mC      Cm  945   1.817   6.099  19.530  0.2984  0.9324 -0.1510
   82mC      Cm  946   1.666   6.392  19.777 -0.0309  1.2154  0.0024
   83mR      Rm  947   1.542   6.298  19.469 -1.3359 -0.7352 -0.3336
   84mB      Bm  948   1.551   6.530  20.101  0.1200 -0.2955  0.4630
   85mA      Am  949   1.370   6.575  20.416 -0.2416  0.3779  0.4718
   86mB      Bm  950   1.140   6.416  20.649  0.5984 -0.3995 -0.3428
   87mC      Cm  951   0.898   6.173  20.801 -0.2892  1.2539  0.3584
   88mC      Cm  952   0.761   5.790  20.878  0.2031 -0.6634  0.2540
   89mR      Rm  953   0.585   6.058  20.756  0.6867 -0.9682 -0.3147
   90mB      Bm  954   0.767   5.423  20.864  0.1647  0.3898 -0.1168
   91mA      Am  955   0.792   5.084  20.732  0.1716 -0.3631  0.1130
   92mB      Bm  956   0.832   4.901  20.421 -0.6699  0.0636  0.2067
   93mC      Cm  957   0.876   4.795  20.066 -0.2245  0.8456 -0.5820
   94mC      Cm  958   1.035   4.849  19.693  1.0259  0.3493  0.1514
   95mR      Rm  959   0.712   4.777  19.767  0.0324 -0.5321  1.2460
   96mB      Bm  960   1.251   5.030  19.455  0.1582  1.4845 -0.8118
   97mA      Am  961   1.413   5.297  19.257 -0.4525  0.8978  0.3611
   98mB      Bm  962   1.403   5.664  19.189  0.3671 -1.0731 -0.2755
   99mC      Cm  963   1.292   6.029  19.210 -0.3001 -0.1846 -0.0170
  100mC      Cm  964   1.163   6.358  19.409  0.0099 -0.4379  0.5620
  101mR      Rm  965   1.018   6.213  19.131  0.2520 -0.4799 -0.2146
  102mB      Bm  966   1.109   6.569  19.704  0.8598  0.0711  0.1330
  103mA      Am  967   0.974   6.679  20.031  0.0375  0.1312  0.2510
  104mB      Bm  968   0.717   6.585  20.274  0.0203  0.3519  0.0492
  105mC      Cm  969   0.432   6.408  20.428 -0.6375 -0.9624  0.9388
  106mC      Cm  970   0.221   6.081  20.544 -0.5640  0.6143 -0.2484
  107mR      Rm  971   0.097   6.366  20.405  1.0309 -0.5249 -0.0922
  108tB      Bt  972   0.145   5.795  20.780 -0.3907 -0.1273 -0.1940
    1hA      Ah  973   5.864   1.372  28.599  0.2545  0.6966  0.0684
    2mB      Bm  974   6.158   1.452  28.817  0.5945 -0.6862 -0.9856
    3mC      Cm  975   6.502   1.500  28.948  0.4787  0.7464 -0.2838
    4mC      Cm  976   6.893   1.620  28.936  0.5696 -1.2402  0.1771
    5mR      Rm  977   6.777   1.328  29.058 -0.5028  0.0033  0.1288
    6mB      Bm  978   7.204   1.777  28.782 -0.1073  0.0363  0.1487
    7mA      Am  979   7.497   1.861  28.567  0.1610  0.2879 -0.3632
    8mB      Bm  980   7.685   1.758  28.267  0.0512  0.3164  0.0154
    9mC      Cm  981   7.783   1.572  27.959 -0.0480  0.3264  1.3591
   10mC      Cm  982   7.748   1.366  27.607 -0.8500  0.1538 -0.4048
   11mR      Rm  983   7.959   1.294  27.861  0.2683 -0.1538  1.1994
   12mB      Bm  984   7.562   1.214  27.316  0.3492  0.8263  0.0030
   13mA      Am  985   7.329   0.986  27.148  0.3247  0.2946 -0.0118
   14mB      Bm  986   7.094   0.696  27.176  0.5761 -0.4584 -0.1873
   15mC      Cm  987   6.892   0.419  27.302 -0.0854  0.9747  0.6960
   16mC      Cm  988   6.654   0.230  27.582 -0.7649  0.1747 -0.2058
   17mR      Rm  989   6.932   0.111  27.439  0.1738 -0.2850 -0.8340
   18mB      Bm  990   6.457   0.251  27.893 -0.1133 -0.4854 -0.6949
   19mA      Am  991   6.360   0.335  28.242 -0.5813  0.9267 -0.3517
   20mB      Bm  992   6.473   0.488  28.559 -0.2472 -0.5501 -0.3097
   21mC      Cm  993   6.691   0.649  28.822 -0.1604 -0.0073  0.8351
   22mC      Cm  994   6.999   0.891  28.949 -0.5252 -1.3148 -0.0732
   23mR      Rm  995   6.945   0.583  29.037  0.5593  0.3790 -0.2734
   24mB      Bm  996   7.261   1.152  28.898 -0.6358  0.0279 -0.0487
   25mA      Am  997   7.553   1.332  28.761 -0.5834 -0.2253  0.3684
   26mB      Bm  998   7.850   1.324  28.547 -0.2436 -0.2313  0.6735
   27mC      Cm  999   8.114   1.198  28.308  0.0340 -0.5129  0.1879
   28mC      Cm 1000   8.225   0.967  27.985 -0.1008  0.4221  0.8306
   29mR      Rm 1001   8.366   0.982  28.291 -1.0026  0.7726 -0.7279
   30mB      Bm 1002   8.142   0.743  27.701  0.1955 -0.7335  0.2481
   31mA      Am 1003   8.016   0.454  27.508 -0.2088  0.1115 -0.7417
   32mB      Bm 1004   7.851   0.132  27.539  1.1701 -0.2398  0.7468
   33mC      Cm 1005   7.684  -0.164  27.696 -1.0908 -0.3719  1.9787
   34mC      Cm 1006   7.451  -0.339  27.983  0.5049 -0.4714 -0.1359
   35mR      Rm 1007   7.743  -0.453  27.862  1.3336  0.6452 -0.6354
   36mB      Bm 1008   7.221  -0.299  28.276  0.5256 -0.2932 -0.3162
   37mA      Am 1009   7.051  -0.195  28.587  0.4087 -0.4783  0.0060
   38mB      Bm 1010   7.093  -0.009  28.908 -0.3758 -0.0211 -0.5770
   39mC      Cm 1011   7.253   0.188  29.176 -0.5596  0.4907 -0.5213
   40mC      Cm 1012   7.488   0.495  29.316  0.6460  0.8200  0.0405
   41mR      Rm 1013   7.500   0.165  29.397  1.0123  2.1817  0.9879
   42mB      Bm 1014   7.707   0.792  29.283 -0.1312 -0.2105  0.0957
   43mA      Am 1015   7.969   1.027  29.179 -0.9252  0.2836 -0.0231
   44mB      Bm 1016   8.282   1.091  28.979  0.6334 -0.6729 -0.1680
   45mC      Cm 1017   8.571   1.032  28.757 -0.7199  0.6569 -1.0695
   46mC      Cm 1018   8.732   0.869  28.425  0.4228 -0.1072  0.0470
   47mR      Rm 1019   8.859   0.844  28.737  0.0998 -0.7166  0.4249
   48mB      Bm 1020   8.704   0.687  28.105 -0.7721  0.1627 -0.1947
   49mA      Am 1021   8.619   0.419  27.860  0.3390  0.6474 -0.2926
   50mB      Bm 1022   8.460   0.086  27.819 -0.4524 -0.3492  0.1551
   51mC      Cm 1023   8.303  -0.242  27.915 -0.0255  0.3253 -0.6526
   52mC      Cm 1024   8.047  -0.483  28.129 -0.6970 -0.7408  0.1131
   53mR      Rm 1025   8.374  -0.546  28.061 -0.7871 -0.9570  0.8237
   54mB      Bm 1026   7.783  -0.561  28.369  0.0281  0.0533 -0.2470
   55mA      Am 1027   7.587  -0.565  28.686  0.1099  0.3701 -0.5149
   56mB      Bm 1028   7.547  -0.450  29.043  0.9102  0.8133  0.8416
   57mC      Cm 1029   7.655  -0.285  29.360  0.1323  0.2277 -0.4845
   58mC      Cm 1030   7.827   0.020  29.574 -1.1025 -0.8310 -0.1958
   59mR      Rm 1031   7.878  -0.312  29.618 -1.2983 -0.0457 -0.2996
   60mB      Bm 1032   7.981   0.355  29.633  0.4025  0.0422 -0.0477
   61mA      Am 1033   8.209   0.643  29.584 -0.5787  1.3201  0.5438
   62mB      Bm 1034   8.521   0.707  29.384 -0.2675 -0.0617  0.5329
   63mC      Cm 1035   8.808   0.650  29.157  0.8469  0.5487  0.6604
   64mC      Cm 1036   8.994   0.485  28.824  0.5958 -0.1825 -0.5257
   65mR      Rm 1037   9.124   0.526  29.137 -1.1790  1.2701  0.0595
   66mB      Bm 1038   8.983   0.269  28.522 -1.1057 -0.2872 -1.0288
   67mA      Am 1039   8.912  -0.006  28.297  0.1556 -0.1466  0.5653
   68mB      Bm 1040   8.779  -0.349  28.268 -0.6177 -0.8399  0.0380
   69mC      Cm 1041   8.605  -0.665  28.359  0.3970  0.0329  0.0118
   70mC      Cm 1042   8.313  -0.898  28.526  0.5281  0.4507  0.3342
   71mR      Rm 1043   8.651  -0.949  28.528  0.9726  1.2228 -1.2410
   72mB      Bm 1044   8.009  -0.962  28.726 -0.2277  0.4833  0.2328
   73mA      Am 1045   7.762  -0.965  28.996 -0.6934  0.3000  0.4438
   74mB      Bm 1046   7.671  -0.861  29.338 -0.0027  0.6042 -0.8531
   75mC      Cm 1047   7.681  -0.727  29.688 -0.5257  0.2848  0.0988
   76mC      Cm 1048   7.773  -0.461  29.978  0.3887 -0.5535 -0.1427
   77mR      Rm 1049   7.779  -0.799  30.006  0.1878 -0.7828  0.9493
   78mB      Bm 1050   7.895  -0.159  30.132 -0.1626 -0.6186 -0.2502
   79mA      Am 1051   8.130   0.111  30.220 -0.3018 -0.1220  0.1088
   80mB      Bm 1052   8.455   0.273  30.224  0.4272  0.6403 -0.6628
   81mC      Cm 1053   8.821   0.329  30.196 -0.7743 -0.1135  0.3418
   82mC      Cm 1054   9.166   0.288  29.980  0.4673  0.8678 -0.0820
   83mR      Rm 1055   9.115   0.218  30.308 -1.1093 -0.7406 -0.1115
   84mB      Bm 1056   9.369   0.185  29.677 -0.2986 -0.5047  0.4876
   85mA      Am 1057   9.517  -0.012  29.393  0.4290 -0.2246 -0.4708
   86mB      Bm 1058   9.525  -0.341  29.206 -0.1908 -0.2838 -0.9309
   87mC      Cm 1059   9.438  -0.702  29.136  0.5658 -0.8656  0.4337
   88mC      Cm 1060   9.180  -1.012  29.074 -0.8866  1.1896  1.0765
   89mR      Rm 1061   9.462  -1.021  29.250 -0.0096 -0.6095 -1.5589
   90mB      Bm 1062   8.845  -1.164  29.057  0.4470 -0.3930 -0.5396
   91mA      Am 1063   8.494  -1.250  29.158  1.3020 -0.3491  0.4742
   92mB      Bm 1064   8.268  -1.207  29.449 -0.2346 -0.5029 -0.8696
   93mC      Cm 1065   8.184  -1.122  29.798  0.3329  0.7913  0.0760
   94mC      Cm 1066   8.176  -0.873  30.119  0.7749  0.4262 -1.7655
   95mR      Rm 1067   8.240  -1.202  30.118 -0.2598 -0.4567 -0.8252
   96mB      Bm 1068   8.265  -0.568  30.305  0.6762 -0.7143 -0.5692
   97mA      Am 1069   8.442  -0.290  30.449 -0.5614  0.6382  0.7487
   98mB      Bm 1070   8.790  -0.177  30.462  0.1959 -0.0436 -0.4778
   99mC      Cm 1071   9.160  -0.160  30.436 -0.0953  0.2357 -0.3180
  100mC      Cm 1072   9.531  -0.186  30.260 -0.4539 -0.0727  0.9163
  101mR      Rm 1073   9.441  -0.273  30.568  0.7422 -0.3480 -1.1078
  102mB      Bm 1074   9.759  -0.277  29.982  0.3920  0.5523 -0.3342
  103mA      Am 1075   9.926  -0.436  29.693  0.5235 -0.0345 -0.4133
  104mB      Bm 1076   9.959  -0.704  29.444  0.2949  0.6899 -0.4278
  105mC      Cm 1077   9.894  -1.029  29.268 -0.0952  0.2556 -0.1011
  106mC      Cm 1078   9.656  -1.296  29.074 -0.1352  0.3585  1.0035
  107mR      Rm 1079   9.885  -1.370  29.313  1.0176 -0.4954 -1.0372
  108tB      Bt 1080   9.367  -1.419  28.894  0.4486  0.0033  0.1669
    1hA      Ah 1081   2.437   2.791  13.270 -0.0260  0.1596 -0.0658
    2mB      Bm 1082   2.495   2.555  12.984 -0.1245  0.0672  0.3178
    3mC      Cm 1083   2.421   2.300  12.718  0.7244 -0.0663 -0.0328
    4mC      Cm 1084   2.202   2.110  12.420  0.5191  0.6474  0.0541
    5mR      Rm 1085   2.374   1.969  12.674 -0.6108  0.2036 -0.7618
    6mB      Bm 1086   1.915   2.073  12.201 -0.5213 -0.3592 -0.5182
    7mA      Am 1087   1.574   2.055  12.062 -0.8067 -0.1645 -0.1062
    8mB      Bm 1088   1.214   2.049  12.178  1.0252  1.3655  0.8370
    9mC      Cm 1089   0.914   2.053  12.393 -0.0450 -0.4688 -1.1472
   10mC      Cm 1090   0.684   2.204  12.694 -0.8950 -0.1229 -0.0387
   11mR      Rm 1091   0.735   1.879  12.616 -0.0065 -0.2192  0.6083
   12mB      Bm 1092   0.616   2.433  12.976  0.5507  0.9485  0.5061
   13mA      Am 1093   0.638   2.614  13.288 -0.3775 -0.0700  0.3111
   14mB      Bm 1094   0.858   2.666  13.575 -0.2969  0.1221  0.6577
   15mC      Cm 1095   1.153   2.627  13.794  1.0093 -0.6283 -0.7470
   16mC      Cm 1096   1.550   2.582  13.884 -0.0199 -0.2722 -1.4968
   17mR      Rm 1097   1.283   2.443  14.038  0.0540 -1.1712 -0.1304
   18mB      Bm 1098   1.907   2.551  13.783 -0.6456  0.6406  0.9781
   19mA      Am 1099   2.210   2.427  13.588 -0.3188  0.3068 -0.6864
   20mB      Bm 1100   2.323   2.174  13.346  0.4171  0.0522  0.0485
   21mC      Cm 1101   2.318   1.874  13.121  0.8955 -0.4453  1.2530
   22mC      Cm 1102   2.168   1.639  12.828 -0.1522 -0.2298  0.3580
   23mR      Rm 1103   2.337   1.541  13.109 -0.0261  1.7640 -0.8904
   24mB      Bm 1104   1.923   1.532  12.581  0.1245  0.4382 -0.5637
   25mA      Am 1105   1.581   1.446  12.442  0.0441 -0.4477  0.5680
   26mB      Bm 1106   1.226   1.444  12.492 -0.0280  0.5557  0.4513
   27mC      Cm 1107   0.895   1.483  12.661 -0.8748 -0.4496  0.1046
   28mC      Cm 1108   0.599   1.654  12.888  0.1293  0.8101  0.4903
   29mR      Rm 1109   0.693   1.334  12.883  0.5506 -0.3931 -1.0199
   30mB      Bm 1110   0.450   1.913  13.098 -0.5900  0.6759 -0.0076
   31mA      Am 1111   0.381   2.152  13.366  0.7691 -0.0640  0.5628
   32mB      Bm 1112   0.439   2.272  13.719 -0.1666  0.3074 -0.2415
   33mC      Cm 1113   0.564   2.294  14.065  1.3327  0.5472  1.1579
   34mC      Cm 1114   0.849   2.272  14.354 -0.5990 -0.2858 -1.3609
   35mR      Rm 1115   0.541   2.131  14.358 -0.7079  0.0056 -0.3994
   36mB      Bm 1116   1.188   2.204  14.482 -0.2269  0.7341  0.4105
   37mA      Am 1117   1.521   2.032  14.557 -0.8039  0.4314 -0.0970
   38mB      Bm 1118   1.739   1.730  14.509  0.2012 -0.5262  0.0428
   39mC      Cm 1119   1.843   1.392  14.401  0.2674 -0.0869  0.7345
   40mC      Cm 1120   1.845   1.100  14.108 -0.4641 -0.4635  0.1860
   41mR      Rm 1121   1.777   1.066  14.438 -0.1651 -1.9137 -0.2308
   42mB      Bm 1122   1.790   0.976  13.765 -0.2331  0.5822  0.2541
   43mA      Am 1123   1.632   0.882  13.441 -0.0838 -0.3906  0.2899
   44mB      Bm 1124   1.306   0.871  13.259  0.7176  0.0153  0.2949
   45mC      Cm 1125   0.936   0.902  13.189 -0.7438 -0.3439  1.0742
   46mC      Cm 1126   0.573   1.088  13.209  0.3434 -1.0231 -0.2998
   47mR      Rm 1127   0.635   0.761  13.250 -1.4812  1.1013 -0.6617
   48mB      Bm 1128   0.357   1.358  13.324  0.6782 -1.2509 -0.1495
   49mA      Am 1129   0.192   1.600  13.559  0.2351 -0.0521  0.3131
   50mB      Bm 1130   0.147   1.765  13.889  0.4127  0.6581 -0.1183
   51mC      Cm 1131   0.190   1.833  14.246 -0.1724 -0.8073  0.0233
   52mC      Cm 1132   0.440   1.856  14.571 -0.7600  0.2916 -0.0822
   53mR      Rm 1133   0.139   1.693  14.560 -0.3045  0.8204 -0.7083
   54mB      Bm 1134   0.767   1.864  14.742  0.3906  0.0948 -0.4047
   55mA      Am 1135   1.104   1.740  14.856  0.5236  0.2473 -0.2815
   56mB      Bm 1136   1.344   1.446  14.839 -0.0016 -0.3975  0.7543
   57mC      Cm 1137   1.470   1.106  14.762  1.2031  0.1095 -0.5791
   58mC      Cm 1138   1.526   0.799  14.496 -1.1328  1.5186 -0.2061
   59mR      Rm 1139   1.421   0.777  14.818  0.8538 -0.3990 -0.0841
   60mB      Bm 1140   1.510   0.630  14.174 -0.3501 -0.5283  0.0576
   61mA      Am 1141   1.390   0.499  13.844 -0.1955  0.4536 -1.1466
   62mB      Bm 1142   1.087   0.448  13.625  1.1375 -0.9055  0.1561
   63mC      Cm 1143   0.738   0.447  13.518  1.4682 -0.2502  0.7610
   64mC      Cm 1144   0.375   0.628  13.503 -0.6960 -0.0874 -0.6146
   65mR      Rm 1145   0.436   0.308  13.569 -0.9804 -0.0503 -0.3849
   66mB      Bm 1146   0.125   0.886  13.575 -0.3061 -0.0977  0.5958
   67mA      Am 1147  -0.072   1.126  13.771 -0.0858  0.1743 -0.5118
   68mB      Bm 1148  -0.139   1.291  14.089  0.5355  0.3463  0.6484
   69mC      Cm 1149  -0.124   1.384  14.447 -0.1201  1.0427  0.4296
   70mC      Cm 1150   0.063   1.443  14.798 -0.9443 -1.3084 -0.2500
   71mR      Rm 1151  -0.230   1.281  14.742  0.0693 -0.8034 -0.8169
   72mB      Bm 1152   0.366   1.444  15.027 -0.7948  0.1316 -0.3524
   73mA      Am 1153   0.680   1.320  15.189  0.6640 -0.2928  0.3655
   74mB      Bm 1154   0.935   1.048  15.195 -0.4269 -0.2091 -0.3268
   75mC      Cm 1155   1.115   0.724  15.117  0.0603 -0.2171  0.7639
   76mC      Cm 1156   1.220   0.423  14.860  0.3682 -0.9035 -0.9616
   77mR      Rm 1157   1.094   0.393  15.175 -0.4659  0.0366 -0.1929
   78mB      Bm 1158   1.236   0.257  14.527 -0.7148 -0.3002  0.2770
   79mA      Am 1159   1.126   0.121  14.207 -0.2119 -0.0780 -0.2981
   80mB      Bm 1160   0.850   0.028  13.983  0.7359  0.2821  0.8169
   81mC      Cm 1161   0.499  -0.004  13.877  0.0783 -0.7169 -0.6544
   82mC      Cm 1162   0.120   0.132  13.827 -0.2804 -0.1711  0.7777
   83mR      Rm 1163   0.213  -0.175  13.920 -0.8624 -0.3223  0.2505
   84mB      Bm 1164  -0.137   0.406  13.843  0.1713 -0.0682 -1.1305
   85mA      Am 1165  -0.335   0.681  13.998  0.4092  0.3060  0.5926
   86mB      Bm 1166  -0.425   0.873  14.303 -0.4839 -0.5438  0.5260
   87mC      Cm 1167  -0.425   0.953  14.664  0.1756  0.2764 -0.1909
   88mC      Cm 1168  -0.270   0.991  15.041  0.1692  0.7878 -0.5251
   89mR      Rm 1169  -0.541   0.812  14.957 -0.0401  0.2064 -0.6417
   90mB      Bm 1170   0.017   1.015  15.282 -0.1115 -0.0985  0.0792
   91mA      Am 1171   0.336   0.928  15.460 -0.0178  0.4439  0.4240
   92mB      Bm 1172   0.597   0.654  15.477  0.0364 -0.3207  0.6925
   93mC      Cm 1173   0.781   0.334  15.449  0.7886 -0.1118 -0.6031
   94mC      Cm 1174   0.927   0.005  15.257 -0.2223 -0.4116  0.4079
   95mR      Rm 1175   0.765   0.013  15.553 -0.0398  0.4156  0.3613
   96mB      Bm 1176   0.986  -0.188  14.950 -0.1487 -0.2881 -0.4212
   97mA      Am 1177   0.924  -0.350  14.626  0.2799 -0.1683  0.4774
   98mB      Bm 1178   0.660  -0.449  14.381 -1.0272 -0.1673 -0.2911
   99mC      Cm 1179   0.316  -0.479  14.227  0.0227  0.5565 -0.1734
  100mC      Cm 1180  -0.057  -0.355  14.134 -0.7478  0.2566  0.1241
  101mR      Rm 1181   0.033  -0.647  14.248  2.0300 -0.8854 -0.1741
  102mB      Bm 1182  -0.312  -0.096  14.150  1.0402 -0.0662 -0.1224
  103mA      Am 1183  -0.541   0.155  14.272  0.0196 -0.1391 -0.7431
  104mB      Bm 1184  -0.651   0.339  14.581 -0.3217  0.8220  0.1091
  105mC      Cm 1185  -0.689   0.442  14.934  1.3190  0.0521 -0.3661
  106mC      Cm 1186  -0.547   0.588  15.297 -0.6188 -0.5614 -0.3035
  107mR      Rm 1187  -0.777   0.346  15.244 -0.2604  0.1318  2.3245
  108tB      Bt 1188  -0.448   0.837  15.538  0.0008  0.0610  0.4926
    1hA      Ah 1189  10.541   3.185  21.570  0.0467  0.3220 -1.0563
    2mB      Bm 1190  10.231   3.243  21.367  0.4531  0.0547 -0.1906
    3mC      Cm 1191   9.916   3.386  21.221  0.2730 -0.1665  0.2831
    4mC      Cm 1192   9.683   3.691  21.055  0.8001 -0.1847 -0.0412
    5mR      Rm 1193   9.590   3.428  21.261 -2.3384  0.6296  0.1967
    6mB      Bm 1194   9.593   4.034  20.976  0.0237  0.3993 -0.3463
    7mA      Am 1195   9.567   4.400  21.019 -0.6218 -0.1753 -0.4856
    8mB      Bm 1196   9.631   4.704  21.212  0.9829 -0.4799  0.1106
    9mC      Cm 1197   9.744   4.916  21.494  1.1618 -0.1810 -0.4389
   10mC      Cm 1198   9.995   5.032  21.800  0.0131  0.6439 -0.8578
   11mR      Rm 1199   9.655   5.051  21.792 -1.1530 -0.1044  0.9806
   12mB      Bm 1200  10.276   4.996  22.046  0.0512 -0.3419  0.1344
   13mA      Am 1201  10.490   4.834  22.292 -0.3961  0.6300  0.0137
   14mB      Bm 1202  10.557   4.529  22.510  0.5752 -0.2422 -0.6871
   15mC      Cm 1203  10.512   4.209  22.669  0.3258  0.5537  0.2009
   16mC      Cm 1204  10.419   3.815  22.682  0.2954  0.4584  0.0886
   17mR      Rm 1205  10.303   4.051  22.889 -0.4620  0.0261  0.2328
   18mB      Bm 1206  10.331   3.500  22.496 -0.5526  0.4566 -0.2468
   19mA      Am 1207  10.163   3.271  22.261  0.2034  0.4317  0.3299
   20mB      Bm 1208   9.883   3.211  22.025 -0.4854 -0.3955 -0.0340
   21mC      Cm 1209   9.567   3.260  21.837  0.0815  0.1985  0.2845
   22mC      Cm 1210   9.309   3.467  21.612  0.3314  0.3822  0.0012
   23mR      Rm 1211   9.235   3.273  21.872  0.6921 -0.6169  0.7472
   24mB      Bm 1212   9.209   3.778  21.436  0.2880  1.3925 -0.6924
   25mA      Am 1213   9.146   4.136  21.358 -0.0578 -0.5667  0.3585
   26mB      Bm 1214   9.162   4.481  21.495 -0.2090  0.5181  0.0550
   27mC      Cm 1215   9.211   4.776  21.727  0.2317 -0.4008 -0.2761
   28mC      Cm 1216   9.408   4.982  22.025 -0.9741  1.2113  1.0489
   29mR      Rm 1217   9.076   4.939  21.987 -0.3362 -0.6742 -0.2757
   30mB      Bm 1218   9.666   5.019  22.299  0.3688  0.8686  0.5489
   31mA      Am 1219   9.880   4.936  22.588 -0.2771 -0.8693 -0.3005
   32mB      Bm 1220   9.968   4.686  22.850 -0.2908 -0.1220  0.5014
   33mC      Cm 1221   9.957   4.364  23.026  0.6937  0.9793 -0.5480
   34mC      Cm 1222   9.917   3.961  23.033  0.2612 -0.6081  0.8829
   35mR      Rm 1223   9.761   4.182  23.242 -0.9077 -0.7855  0.5524
   36mB      Bm 1224   9.874   3.621  22.891  0.1649 -0.2642 -0.2920
   37mA      Am 1225   9.730   3.347  22.695 -0.9452  0.3272 -0.5332
   38mB      Bm 1226   9.460   3.255  22.469 -0.5031  0.0247 -0.3873
   39mC      Cm 1227   9.143   3.300  22.275  0.7234  0.1912  0.6798
   40mC      Cm 1228   8.896   3.489  22.006 -0.2904  0.0888 -0.4922
   41mR      Rm 1229   8.815   3.317  22.292 -0.1907 -0.0272  0.8684
   42mB      Bm 1230   8.790   3.776  21.795  0.7702 -0.0547 -0.1776
   43mA      Am 1231   8.716   4.116  21.702 -0.0760 -0.9507 -0.5253
   44mB      Bm 1232   8.685   4.471  21.787 -0.9316 -0.0899  0.5816
   45mC      Cm 1233   8.683   4.797  21.975 -0.2602  0.0086  0.0881
   46mC      Cm 1234   8.859   5.041  22.255  0.6109  1.1192 -0.0487
   47mR      Rm 1235   8.529   4.954  22.222  0.1099  0.5119 -1.8983
   48mB      Bm 1236   9.108   5.116  22.506 -0.0237 -0.0461 -0.0903
   49mA      Am 1237   9.329   5.072  22.809 -0.1625 -0.2758 -0.7638
   50mB      Bm 1238   9.433   4.848  23.090  0.3090  0.0781  0.2279
   51mC      Cm 1239   9.447   4.558  23.322 -1.1273  0.5000  0.8305
   52mC      Cm 1240   9.420   4.151  23.380  1.0094  0.5380 -0.6720
   53mR      Rm 1241   9.259   4.399  23.550 -0.5998  0.1274  0.4959
   54mB      Bm 1242   9.391   3.805  23.255 -0.0469 -0.5246 -0.0024
   55mA      Am 1243   9.284   3.489  23.089  0.7367 -0.4035 -0.1280
   56mB      Bm 1244   9.033   3.320  22.881  0.1912 -0.1076  0.1253
   57mC      Cm 1245   8.723   3.272  22.675 -0.6660  0.4044 -0.2342
   58mC      Cm 1246   8.462   3.389  22.376  0.0934 -0.0231 -0.6634
   59mR      Rm 1247   8.389   3.253  22.679 -1.1408 -0.0735 -0.6003
   60mB      Bm 1248   8.338   3.637  22.131  0.2303  0.3471  0.7486
   61mA      Am 1249   8.221   3.954  21.969 -0.5080  0.2755  0.8276
   62mB      Bm 1250   8.169   4.306  22.038  0.2318  0.4323 -0.3284
   63mC      Cm 1251   8.135   4.636  22.207 -0.0007 -0.4828 -0.7107
   64mC      Cm 1252   8.262   4.928  22.459  0.3742  0.6261  1.1340
   65mR      Rm 1253   7.940   4.818  22.418 -0.1990 -1.2150  0.2433
   66mB      Bm 1254   8.491   5.051  22.718 -0.2658 -0.2987  0.2765
   67mA      Am 1255   8.711   5.073  23.015 -0.0093 -0.2257  0.4196
   68mB      Bm 1256   8.814   4.908  23.323 -0.8231  0.2012 -0.4671
   69mC      Cm 1257   8.848   4.658  23.591 -0.1728 -0.4004 -0.1083
   70mC      Cm 1258   8.892   4.282  23.730  0.2492 -0.6425  0.3003
   71mR      Rm 1259   8.686   4.524  23.853  0.4483 -1.4376  0.5696
   72mB      Bm 1260   8.933   3.916  23.666  0.2192  0.5949  0.3008
   73mA      Am 1261   8.869   3.575  23.532  0.2182  0.0025  0.2726
   74mB      Bm 1262   8.633   3.355  23.356 -0.2491 -0.4407  0.1121
   75mC      Cm 1263   8.346   3.240  23.156 -0.4965 -0.1678 -0.6091
   76mC      Cm 1264   8.073   3.293  22.858  0.4867  0.2659  0.6370
   77mR      Rm 1265   8.024   3.181  23.173  0.3699 -1.4183 -0.1877
   78mB      Bm 1266   7.928   3.471  22.559  0.7540 -0.9944 -0.4421
   79mA      Am 1267   7.804   3.761  22.356  0.2534  0.3517 -0.0271
   80mB      Bm 1268   7.709   4.106  22.376  0.5607  0.2329 -0.3710
   81mC      Cm 1269   7.643   4.451  22.498  0.6889 -0.8677 -0.6184
   82mC      Cm 1270   7.727   4.787  22.721 -0.5690  0.3729 -1.4512
   83mR      Rm 1271   7.422   4.642  22.678  0.3598 -0.0851 -0.2562
   84mB      Bm 1272   7.919   5.001  22.945  0.7754 -0.1512  0.8418
   85mA      Am 1273   8.099   5.072  23.270  0.6229 -0.1488  0.2713
   86mB      Bm 1274   8.210   4.952  23.599 -0.4116  0.3103  0.3480
   87mC      Cm 1275   8.255   4.735  23.899  0.4822 -0.3314 -0.1495
   88mC      Cm 1276   8.345   4.374  24.051  0.5187 -0.0344 -0.3829
   89mR      Rm 1277   8.090   4.575  24.145 -1.5736  0.1804 -0.4692
   90mB      Bm 1278   8.439   4.009  24.051 -0.1312  0.6370 -0.1657
   91mA      Am 1279   8.420   3.644  23.976 -0.0674  0.2479 -0.2434
   92mB      Bm 1280   8.222   3.398  23.798  0.0330  0.2920  0.1265
   93mC      Cm 1281   7.948   3.251  23.595 -0.1181  0.0775  0.1191
   94mC      Cm 1282   7.682   3.244  23.284 -0.5943 -0.0378 -0.0476
   95mR      Rm 1283   7.617   3.175  23.612  0.5878 -0.1005 -0.5352
   96mB      Bm 1284   7.538   3.396  22.978 -0.8459 -0.7019  1.1852
   97mA      Am 1285   7.388   3.655  22.759 -0.4979  0.1162  0.2408
   98mB      Bm 1286   7.239   3.996  22.706  0.0084 -0.9213 -0.3125
   99mC      Cm 1287   7.139   4.342  22.811  0.8289 -0.9844 -0.5191
  100mC      Cm 1288   7.186   4.701  23.001  0.3681  0.0235  0.1857
  101mR      Rm 1289   6.905   4.521  22.977  0.5388  0.3079  0.6878
  102mB      Bm 1290   7.356   4.964  23.216 -0.3149  0.9877  0.9290
  103mA      Am 1291   7.511   5.122  23.505 -0.3740 -0.2479  0.2485
  104mB      Bm 1292   7.638   5.095  23.850  0.0115  0.0217 -0.9241
  105mC      Cm 1293   7.734   4.974  24.193  0.0242  0.1107  0.8383
  106mC      Cm 1294   7.858   4.693  24.465 -0.3844  0.3245  0.5548
  107mR      Rm 1295   7.582   4.886  24.480  0.7651 -1.0060 -0.6770
  108tB      Bt 1296   7.999   4.360  24.555 -0.0714 -0.0546  0.1697
    1hA      Ah 1297   8.705   8.489  21.381 -0.1204 -0.2365 -0.5088
    2mB      Bm 1298   8.411   8.628  21.551 -0.0924  0.5385 -0.3859
    3mC      Cm 1299   8.204   8.869  21.748 -0.3999  0.0387 -0.2329
    4mC      Cm 1300   8.064   9.231  21.877  0.4718 -0.8047 -0.1771
    5mR      Rm 1301   8.149   8.972  22.068  0.1574 -0.0521  1.2115
    6mB      Bm 1302   8.069   9.602  21.883 -0.6345 -0.0030  0.1485
    7mA      Am 1303   8.188   9.955  21.874 -0.0330 -0.6661  0.3523
    8mB      Bm 1304   8.450  10.215  21.845  0.4274  0.5884 -0.3589
    9mC      Cm 1305   8.785  10.357  21.804 -0.9358 -0.9743 -0.6035
   10mC      Cm 1306   9.164  10.353  21.636  0.4132 -0.2222  0.7804
   11mR      Rm 1307   9.077  10.378  21.960  1.4449 -0.1223  0.3553
   12mB      Bm 1308   9.440  10.235  21.418 -0.2487  0.7696 -0.6108
   13mA      Am 1309   9.678  10.010  21.252  0.5408 -0.5677 -0.0675
   14mB      Bm 1310   9.804   9.665  21.208 -1.0693  0.0565  0.0148
   15mC      Cm 1311   9.858   9.302  21.282  1.2159  0.0682 -0.6312
   16mC      Cm 1312   9.721   8.928  21.371 -0.9171 -0.7411 -1.1015
   17mR      Rm 1313   9.995   9.088  21.497  0.7127  0.0558 -1.3083
   18mB      Bm 1314   9.461   8.676  21.445 -0.4398  0.1387 -0.2630
   19mA      Am 1315   9.173   8.507  21.589 -0.7839  0.5868  0.8981
   20mB      Bm 1316   8.898   8.531  21.838  0.3385 -0.2007  0.3078
   21mC      Cm 1317   8.685   8.647  22.118 -0.8156 -0.4609 -0.4928
   22mC      Cm 1318   8.479   8.927  22.332  0.3195  0.6383 -1.0569
   23mR      Rm 1319   8.667   8.668  22.449 -1.1136 -1.5301  0.0650
   24mB      Bm 1320   8.380   9.278  22.384  0.9284 -0.0818  0.5062
   25mA      Am 1321   8.409   9.651  22.415  0.0373 -0.5432 -0.2334
   26mB      Bm 1322   8.608   9.954  22.399 -0.1333 -0.3845 -0.5503
   27mC      Cm 1323   8.904  10.169  22.375 -0.9014 -0.4363 -0.3725
   28mC      Cm 1324   9.264  10.302  22.232  0.4574 -0.4556  0.4615
   29mR      Rm 1325   9.150  10.300  22.563 -0.5843 -0.4718 -1.0803
   30mB      Bm 1326   9.558  10.258  22.019 -0.0157 -0.3078 -1.0153
   31mA      Am 1327   9.847  10.099  21.846 -0.2854 -0.7513  0.3639
   32mB      Bm 1328  10.030   9.790  21.785  0.3715  0.5056 -0.8191
   33mC      Cm 1329  10.141   9.436  21.809  0.2338 -0.2194 -0.5009
   34mC      Cm 1330  10.055   9.039  21.863 -0.0233  0.5771  0.6414
   35mR      Rm 1331  10.299   9.221  22.018 -0.9110 -0.2592 -0.5518
   36mB      Bm 1332   9.826   8.753  21.924 -0.2754  0.4956  0.2546
   37mA      Am 1333   9.567   8.529  22.053  0.1959 -0.0848 -0.4741
   38mB      Bm 1334   9.282   8.482  22.287  0.8331 -0.1095 -0.6787
   39mC      Cm 1335   9.043   8.552  22.562 -0.4264 -0.0769  0.0403
   40mC      Cm 1336   8.813   8.811  22.779 -0.3118  1.0435  0.0289
   41mR      Rm 1337   9.034   8.585  22.902  0.3839 -0.6823  0.7227
   42mB      Bm 1338   8.652   9.137  22.839 -0.2774 -0.1293  0.9308
   43mA      Am 1339   8.642   9.507  22.874 -0.8938 -0.5117  0.3181
   44mB      Bm 1340   8.811   9.834  22.892  0.4293  0.8658 -0.7548
   45mC      Cm 1341   9.085  10.080  22.900 -0.4605  0.8639  0.0155
   46mC      Cm 1342   9.450  10.221  22.781 -1.2742 -0.9332 -0.5022
   47mR      Rm 1343   9.343  10.201  23.093 -0.7743 -0.6963  0.2727
   48mB      Bm 1344   9.762  10.242  22.563  0.1149 -0.1743 -0.7029
   49mA      Am 1345  10.072  10.154  22.384 -0.2489  0.0200  0.9175
   50mB      Bm 1346  10.287   9.856  22.323  1.0559  0.6423 -0.7800
   51mC      Cm 1347  10.435   9.506  22.351  1.0469 -0.4235 -0.2659
   52mC      Cm 1348  10.376   9.104  22.402 -0.4347 -0.6822  0.3263
   53mR      Rm 1349  10.602   9.305  22.558 -0.7359 -0.2600  0.3434
   54mB      Bm 1350  10.178   8.800  22.445 -0.2507  0.0468  0.0446
   55mA      Am 1351   9.930   8.558  22.556 -0.0194  0.1911 -0.2394
   56mB      Bm 1352   9.648   8.470  22.782  0.3501 -0.1199  0.2948
   57mC      Cm 1353   9.398   8.508  23.046 -0.2216  0.1394  0.6786
   58mC      Cm 1354   9.120   8.709  23.259 -0.3034  0.0120  0.7074
   59mR      Rm 1355   9.364   8.520  23.373 -0.3085  0.0130 -1.6036
   60mB      Bm 1356   8.940   9.025  23.344  0.1847  0.3515  0.2790
   61mA      Am 1357   8.882   9.380  23.421 -0.1954  0.2527 -0.2065
   62mB      Bm 1358   9.024   9.725  23.465 -0.2764 -0.8665  0.1798
   63mC      Cm 1359   9.271   9.985  23.487  0.6456  0.2510  0.3203
   64mC      Cm 1360   9.625  10.161  23.365  0.4783 -0.2753  0.7047
   65mR      Rm 1361   9.515  10.109  23.677 -1.3443  0.0126 -0.9381
   66mB      Bm 1362   9.926  10.220  23.149  0.6460 -0.6895  0.0413
   67mA      Am 1363  10.250  10.149  22.985  0.7322  0.0670  0.3288
   68mB      Bm 1364  10.503   9.877  22.930 -0.3736  0.5088 -0.6758
   69mC      Cm 1365  10.683   9.553  22.951  0.6289 -0.3377  0.3813
   70mC      Cm 1366  10.677   9.150  22.946 -0.3366  0.3915 -0.3976
   71mR      Rm 1367  10.872   9.348  23.146 -0.2231  0.7794  0.2392
   72mB      Bm 1368  10.546   8.798  22.922  0.6035 -0.4964  0.2833
   73mA      Am 1369  10.324   8.501  23.000 -0.0757 -0.6132 -0.3556
   74mB      Bm 1370  10.051   8.391  23.230  0.2290  1.0111 -1.0249
   75mC      Cm 1371   9.799   8.374  23.499  0.1265 -0.6884  0.2655
   76mC      Cm 1372   9.503   8.523  23.733 -0.6712 -0.3800 -0.1625
   77mR      Rm 1373   9.767   8.358  23.837 -0.2551  0.1057  0.8982
   78mB      Bm 1374   9.275   8.805  23.834  1.0550 -0.5219 -0.7431
   79mA      Am 1375   9.155   9.141  23.927 -0.0419 -0.3198  0.1628
   80mB      Bm 1376   9.246   9.491  24.003 -0.0908  0.0000  0.2128
   81mC      Cm 1377   9.420   9.817  24.067  0.8216 -0.2658 -0.3515
   82mC      Cm 1378   9.714  10.089  23.993 -0.0864  0.1642 -0.1317
   83mR      Rm 1379   9.630   9.967  24.289 -0.3388  0.2008 -0.7569
   84mB      Bm 1380  10.002  10.229  23.799  1.5011  0.0090  0.9876
   85mA      Am 1381  10.323  10.224  23.622 -0.0986 -0.3543 -0.2376
   86mB      Bm 1382  10.617  10.014  23.532  0.3725  0.1782  0.8053
   87mC      Cm 1383  10.852   9.721  23.538 -0.6469  1.2966  0.1325
   88mC      Cm 1384  10.932   9.319  23.539  0.3366 -0.8669  0.4715
   89mR      Rm 1385  11.067   9.554  23.746  0.9589  1.0007 -0.7237
   90mB      Bm 1386  10.831   8.972  23.514 -0.5556 -0.2600  0.2866
   91mA      Am 1387  10.655   8.661  23.582 -0.5753 -0.5132  0.2243
   92mB      Bm 1388  10.396   8.498  23.800  0.0748  0.6929 -1.3038
   93mC      Cm 1389  10.144   8.432  24.047  0.3924 -0.7299  0.1859
   94mC      Cm 1390   9.814   8.504  24.273 -1.8363  0.2133 -0.4601
   95mR      Rm 1391  10.102   8.369  24.385 -1.2525  1.3135  0.4575
   96mB      Bm 1392   9.560   8.755  24.379  0.4268 -0.5641 -0.6762
   97mA      Am 1393   9.406   9.072  24.502 -0.3095  0.5682  0.6848
   98mB      Bm 1394   9.452   9.425  24.598 -0.3062  0.1075  0.3406
   99mC      Cm 1395   9.631   9.744  24.653 -0.1504  0.4086 -0.1194
  100mC      Cm 1396   9.920  10.016  24.565  1.3810  0.3215 -0.7946
  101mR      Rm 1397   9.845   9.888  24.868  0.0825 -0.9472  1.5555
  102mB      Bm 1398  10.212  10.147  24.357  0.0316 -0.0962 -0.9400
  103mA      Am 1399  10.516  10.183  24.176  0.6611 -0.7004 -0.0477
  104mB      Bm 1400  10.828  10.031  24.085 -0.2259  0.0121 -0.0667
  105mC      Cm 1401  11.101   9.769  24.071 -0.2708 -0.4780 -0.2532
  106mC      Cm 1402  11.253   9.383  24.047 -0.3639  0.1938  0.6409
  107mR      Rm 1403  11.353   9.643  24.255 -0.1951  0.4040  0.6047
  108tB      Bt 1404  11.369   9.081  23.879 -0.5057 -0.4525 -0.1309
    1hA      Ah 1405   0.123   4.079  23.339 -0.6072 -0.4321  0.0759
    2mB      Bm 1406   0.059   4.190  22.993  0.0609  0.3155  0.1937
    3mC      Cm 1407  -0.021   4.190  22.626 -0.6820 -0.6939 -1.6967
    4mC      Cm 1408  -0.227   4.114  22.275 -0.4126  0.5699  0.0854
    5mR      Rm 1409   0.106   4.139  22.325 -0.3425  0.1129 -0.3930
    6mB      Bm 1410  -0.474   3.929  22.067  0.4832 -0.3068  0.3541
    7mA      Am 1411  -0.671   3.651  21.927 -1.0752 -0.5429  0.2959
    8mB      Bm 1412  -0.782   3.302  21.918 -0.0501 -0.0906  0.2532
    9mC      Cm 1413  -0.798   2.945  22.013 -0.1900 -0.4296 -0.0435
   10mC      Cm 1414  -0.827   2.655  22.298  0.4598  0.6842  0.7706
   11mR      Rm 1415  -0.642   2.648  22.012  1.7943 -1.1076 -2.4259
   12mB      Bm 1416  -0.827   2.533  22.638  0.1344 -0.6252 -0.4971
   13mA      Am 1417  -0.715   2.474  22.974 -0.0738 -0.2875  0.2713
   14mB      Bm 1418  -0.455   2.534  23.228  1.5702  1.0360  0.1756
   15mC      Cm 1419  -0.144   2.660  23.375  0.7706  0.8384  0.6130
   16mC      Cm 1420   0.117   2.950  23.475  0.5311 -0.3188 -1.2499
   17mR      Rm 1421   0.186   2.622  23.413 -0.9427 -0.7615 -0.8869
   18mB      Bm 1422   0.273   3.292  23.460  0.3579  0.1221  0.1376
   19mA      Am 1423   0.403   3.607  23.317 -0.5102  0.5885 -0.8702
   20mB      Bm 1424   0.464   3.767  22.997  0.1245 -0.3603  0.0796
   21mC      Cm 1425   0.503   3.837  22.633 -0.9567  0.0281 -0.7565
   22mC      Cm 1426   0.381   3.789  22.248  0.4032  0.5552  0.2154
   23mR      Rm 1427   0.694   3.745  22.368  0.4405 -0.9764  0.1275
   24mB      Bm 1428   0.173   3.678  21.980 -0.5550 -1.1220  0.5088
   25mA      Am 1429  -0.047   3.471  21.765 -0.0993  0.3973 -0.1395
   26mB      Bm 1430  -0.217   3.143  21.719  0.4221  0.7275  0.6943
   27mC      Cm 1431  -0.305   2.781  21.776  0.0576  0.1549  0.6446
   28mC      Cm 1432  -0.331   2.437  22.001  0.6445 -0.2113  0.3339
   29mR      Rm 1433  -0.158   2.465  21.708  0.3556 -0.7745 -1.0910
   30mB      Bm 1434  -0.353   2.272  22.323  0.6169  0.0235 -0.5102
   31mA      Am 1435  -0.286   2.159  22.674  0.0734  1.2264 -0.3001
   32mB      Bm 1436  -0.048   2.182  22.956 -0.2008 -0.7133 -0.0245
   33mC      Cm 1437   0.237   2.274  23.179  0.0929  0.0388 -1.0379
   34mC      Cm 1438   0.543   2.520  23.299  0.4223  0.7281  0.0808
   35mR      Rm 1439   0.569   2.201  23.212  0.8518  0.5238 -0.4049
   36mB      Bm 1440   0.720   2.854  23.311  0.2813  0.9159 -1.3470
   37mA      Am 1441   0.886   3.177  23.206 -0.8217 -1.2398 -1.0414
   38mB      Bm 1442   0.968   3.355  22.891 -0.1717  0.1286 -0.2111
   39mC      Cm 1443   1.020   3.441  22.536 -0.6293 -0.1990  0.2575
   40mC      Cm 1444   0.924   3.477  22.141  0.5078 -0.1139  0.0289
   41mR      Rm 1445   1.210   3.369  22.278 -0.3380 -1.0491 -0.7848
   42mB      Bm 1446   0.691   3.432  21.848 -0.0473  0.1383  0.5181
   43mA      Am 1447   0.455   3.265  21.625  0.6604  0.3968 -1.0174
   44mB      Bm 1448   0.291   2.955  21.532 -0.0238  0.1943  0.2294
   45mC      Cm 1449   0.206   2.593  21.543 -0.0343  0.3590  0.3797
   46mC      Cm 1450   0.122   2.253  21.739 -0.5412  0.2105 -0.0168
   47mR      Rm 1451   0.325   2.277  21.465  0.2625 -0.3184 -0.1384
   48mB      Bm 1452   0.063   2.036  22.035  0.4318 -0.0049  0.7383
   49mA      Am 1453   0.107   1.877  22.367  0.1244 -0.0746  0.4191
   50mB      Bm 1454   0.325   1.832  22.669  0.2915 -0.0919  0.1246
   51mC      Cm 1455   0.615   1.878  22.880  0.0635  1.1150  0.4019
   52mC      Cm 1456   0.904   2.119  23.057  0.4283  0.2179 -0.2507
   53mR      Rm 1457   0.945   1.820  22.903  0.4731 -0.3171  0.1779
   54mB      Bm 1458   1.087   2.437  23.129 -0.2088 -0.1319 -0.2142
   55mA      Am 1459   1.269   2.746  23.072  0.2393  0.6953  0.6432
   56mB      Bm 1460   1.425   2.950  22.807 -0.9556 -0.8845  0.3467
   57mC      Cm 1461   1.506   3.070  22.463 -0.0693  0.2999 -0.0280
   58mC      Cm 1462   1.423   3.139  22.071 -0.4908 -0.5265  1.2956
   59mR      Rm 1463   1.707   3.006  22.198  1.7611 -0.0683 -0.6267
   60mB      Bm 1464   1.203   3.130  21.773  0.1301  0.8667 -0.3926
   61mA      Am 1465   0.966   3.021  21.504 -0.0136 -0.0303 -0.4351
   62mB      Bm 1466   0.795   2.725  21.392  0.2804 -0.4477  0.1381
   63mC      Cm 1467   0.686   2.379  21.365  0.3990 -0.5930 -0.0655
   64mC      Cm 1468   0.601   2.009  21.519  0.5012  1.2650 -0.0932
   65mR      Rm 1469   0.819   2.075  21.280 -1.5493 -0.8645  0.4377
   66mB      Bm 1470   0.510   1.762  21.775 -0.2743 -0.4368 -0.8169
   67mA      Am 1471   0.540   1.575  22.099 -0.0684  0.3264  1.5126
   68mB      Bm 1472   0.749   1.509  22.390 -0.4547 -0.0568 -0.2855
   69mC      Cm 1473   1.042   1.510  22.618  0.3925  0.1011 -0.0835
   70mC      Cm 1474   1.352   1.680  22.818 -0.4983  0.5223 -0.9655
   71mR      Rm 1475   1.350   1.369  22.676 -0.0267  1.5009  0.1702
   72mB      Bm 1476   1.558   1.976  22.923  1.4485 -0.2077  0.1372
   73mA      Am 1477   1.757   2.289  22.905 -0.4586 -0.6602  0.0366
   74mB      Bm 1478   1.894   2.531  22.677 -1.1579 -0.0811  0.2113
   75mC      Cm 1479   1.993   2.701  22.362 -0.1981  0.1541 -0.8666
   76mC      Cm 1480   1.940   2.830  21.980 -0.5921 -0.4260 -1.1662
   77mR      Rm 1481   2.228   2.720  22.118 -0.1001  0.0297  0.4423
   78mB      Bm 1482   1.736   2.833  21.667 -0.1315  0.5656 -0.2740
   79mA      Am 1483   1.520   2.736  21.379 -0.2096 -0.2921  0.6499
   80mB      Bm 1484   1.322   2.460  21.227 -0.6007  0.2762 -0.3076
   81mC      Cm 1485   1.187   2.126  21.147  1.0733  0.3629  0.2805
   82mC      Cm 1486   1.021   1.763  21.255 -0.3663 -1.4334  0.4559
   83mR      Rm 1487   1.245   1.823  21.004  0.4789  0.8251 -1.4830
   84mB      Bm 1488   0.922   1.502  21.498  0.2193  0.3116  0.1187
   85mA      Am 1489   0.904   1.251  21.774 -0.4643 -0.1063  0.0191
   86mB      Bm 1490   1.077   1.091  22.067  0.1450 -0.6092 -0.0652
   87mC      Cm 1491   1.336   1.005  22.323  0.0514 -0.7577 -0.3100
   88mC      Cm 1492   1.633   1.119  22.577 -0.1572 -0.2464 -0.6013
   89mR      Rm 1493   1.629   0.855  22.367  0.7609  0.3103  0.3767
   90mB      Bm 1494   1.849   1.379  22.735  0.9238 -0.1137  0.4772
   91mA      Am 1495   2.077   1.672  22.778  0.5191 -0.4558 -0.4674
   92mB      Bm 1496   2.273   1.927  22.624  0.0716  0.5401 -0.1265
   93mC      Cm 1497   2.426   2.146  22.354 -0.4317 -0.1865 -0.5585
   94mC      Cm 1498   2.389   2.347  21.999 -0.9043 -0.0034  0.1801
   95mR      Rm 1499   2.638   2.142  22.092  1.1662 -1.0457 -0.5728
   96mB      Bm 1500   2.216   2.462  21.691 -0.1205 -0.3293  0.2383
   97mA      Am 1501   2.015   2.436  21.386 -0.7485 -0.3316 -0.5359
   98mB      Bm 1502   1.821   2.226  21.162  0.5802 -0.6445  0.0469
   99mC      Cm 1503   1.682   1.912  21.017  0.7282 -0.2676  0.2071
  100mC      Cm 1504   1.488   1.552  21.010  0.2527  0.9333 -0.2180
  101mR      Rm 1505   1.731   1.666  20.800 -0.5821  0.9150 -0.3076
  102mB      Bm 1506   1.363   1.243  21.172 -0.1071 -0.2099  0.2283
  103mA      Am 1507   1.335   0.949  21.397  0.3589  0.3405 -0.1523
  104mB      Bm 1508   1.494   0.747  21.676  0.7986  0.1168  0.2114
  105mC      Cm 1509   1.730   0.630  21.935 -0.0067  0.1098  0.2983
  106mC      Cm 1510   1.975   0.692  22.261  0.8987 -0.1351  0.2988
  107mR      Rm 1511   2.033   0.486  21.989  0.6406 -0.4059 -0.8102
  108tB      Bt 1512   2.122   0.856  22.551 -0.3884 -0.5378 -0.2860
    1hA      Ah 1513   5.233  11.840  19.615 -0.2656 -0.0262 -0.6144
    2mB      Bm 1514   5.564  11.691  19.517  0.3408  0.2993 -0.5434
    3mC      Cm 1515   5.923  11.662  19.420 -0.7509 -0.7493 -0.1457
    4mC      Cm 1516   6.320  11.749  19.471  1.7641  0.0545 -0.7675
    5mR      Rm 1517   6.135  11.798  19.198  0.2621 -0.4124  0.3305
    6mB      Bm 1518   6.602  11.886  19.670 -0.1896 -0.3465  0.4875
    7mA      Am 1519   6.817  12.115  19.874  0.0696 -0.1204 -0.1938
    8mB      Bm 1520   6.854  12.435  20.041 -0.5430  0.2217 -0.1163
    9mC      Cm 1521   6.764  12.779  20.149  0.1591 -1.0356  0.3601
   10mC      Cm 1522   6.536  13.069  20.322 -0.0409  0.4228 -0.2577
   11mR      Rm 1523   6.744  13.106  20.059 -0.2270  0.2997  0.2504
   12mB      Bm 1524   6.216  13.198  20.454 -0.1438 -0.6586  0.1427
   13mA      Am 1525   5.864  13.272  20.484  0.8040  0.3567  0.7163
   14mB      Bm 1526   5.529  13.240  20.327 -0.0499  0.1718 -0.0556
   15mC      Cm 1527   5.258  13.168  20.079 -0.7875  0.1980  0.4502
   16mC      Cm 1528   5.074  12.914  19.816  0.7060 -0.9904 -0.4986
   17mR      Rm 1529   5.111  13.259  19.793 -0.6001  1.0773 -0.6667
   18mB      Bm 1530   5.040  12.602  19.621 -0.0303 -0.8363 -0.6702
   19mA      Am 1531   5.109  12.320  19.398 -0.5103  0.0021 -0.0508
   20mB      Bm 1532   5.378  12.151  19.197  0.2132  0.7706 -0.4232
   21mC      Cm 1533   5.706  12.093  19.023  0.7363 -0.6772 -0.5641
   22mC      Cm 1534   6.115  12.104  18.995 -0.8330 -0.7442  0.5296
   23mR      Rm 1535   5.895  12.198  18.762  0.6502 -0.5889  1.0969
   24mB      Bm 1536   6.463  12.197  19.116 -0.1887  0.5351  0.6572
   25mA      Am 1537   6.734  12.391  19.268  0.2603 -0.1623  0.1857
   26mB      Bm 1538   6.809  12.707  19.436 -0.4332 -0.0699  0.1411
   27mC      Cm 1539   6.799  13.060  19.574  0.3517  0.5587  0.9555
   28mC      Cm 1540   6.644  13.381  19.769 -0.2981 -0.2309  0.1811
   29mR      Rm 1541   6.822  13.386  19.476  0.4815  0.6231 -0.1420
   30mB      Bm 1542   6.343  13.528  19.938 -1.4130  0.3945  0.1661
   31mA      Am 1543   6.002  13.639  20.026 -0.1782  0.4328  0.5423
   32mB      Bm 1544   5.650  13.647  19.919  0.5082  0.0900 -0.3697
   33mC      Cm 1545   5.364  13.585  19.694  0.0765  0.7785 -0.0300
   34mC      Cm 1546   5.125  13.373  19.436 -0.6259 -0.2424  0.6253
   35mR      Rm 1547   5.229  13.686  19.395 -0.5510  0.9260 -0.8713
   36mB      Bm 1548   5.058  13.056  19.248 -0.4494  0.0307 -0.4633
   37mA      Am 1549   5.130  12.774  19.023  0.5210 -0.0818 -0.6209
   38mB      Bm 1550   5.370  12.604  18.789  0.0194  0.2217 -0.5566
   39mC      Cm 1551   5.664  12.540  18.570 -0.0860 -0.0175  0.4529
   40mC      Cm 1552   6.069  12.545  18.509 -0.8740 -0.8010 -0.0775
   41mR      Rm 1553   5.827  12.660  18.306 -0.3943  0.8266  1.2254
   42mB      Bm 1554   6.421  12.602  18.622  0.1678  0.2872 -0.0700
   43mA      Am 1555   6.705  12.780  18.775 -0.2544  0.0735 -0.7019
   44mB      Bm 1556   6.852  13.074  18.943 -0.3323 -0.1209  0.2700
   45mC      Cm 1557   6.874  13.414  19.088  0.7673 -0.0208 -0.0399
   46mC      Cm 1558   6.740  13.735  19.295 -0.5266 -0.0263  0.3930
   47mR      Rm 1559   6.906  13.737  18.998  0.1385 -0.3191 -0.0733
   48mB      Bm 1560   6.496  13.915  19.492 -0.6754 -0.5212 -0.1038
   49mA      Am 1561   6.173  14.055  19.600  0.1458 -0.1352 -0.2067
   50mB      Bm 1562   5.820  14.088  19.495  0.4605  0.9711 -0.3295
   51mC      Cm 1563   5.503  14.071  19.310  0.5697 -0.3327 -0.0910
   52mC      Cm 1564   5.227  13.897  19.058  0.3576  0.3607 -0.3687
   53mR      Rm 1565   5.339  14.211  19.050 -0.2271 -0.4758 -0.3130
   54mB      Bm 1566   5.121  13.608  18.838  0.7095 -0.8176  0.6350
   55mA      Am 1567   5.133  13.323  18.614 -0.0749  0.5792  0.2883
   56mB      Bm 1568   5.332  13.123  18.363 -0.3841  0.3504 -0.7615
   57mC      Cm 1569   5.623  13.045  18.151  0.8801 -0.1305  0.7004
   58mC      Cm 1570   6.018  12.963  18.079 -0.1571  0.2116  0.7061
   59mR      Rm 1571   5.793  13.116  17.868 -1.3491  0.1517  1.3536
   60mB      Bm 1572   6.363  12.971  18.183 -0.0370 -0.8440 -0.4481
   61mA      Am 1573   6.680  13.093  18.311 -0.1729 -0.3007  0.0085
   62mB      Bm 1574   6.887  13.369  18.447  0.7165 -0.1994  0.1610
   63mC      Cm 1575   6.972  13.703  18.573 -0.5235  0.3964 -0.1379
   64mC      Cm 1576   6.862  14.031  18.788  0.3398  0.0214  0.0782
   65mR      Rm 1577   7.021  14.024  18.486 -1.5851 -0.1130  0.9297
   66mB      Bm 1578   6.622  14.232  18.994 -0.4899 -0.5399  0.2208
   67mA      Am 1579   6.324  14.409  19.120 -0.7678  0.4699  0.3099
   68mB      Bm 1580   5.972  14.485  19.064  0.2068  1.1059  0.1412
   69mC      Cm 1581   5.633  14.488  18.917 -0.0078  0.0256  0.0874
   70mC      Cm 1582   5.317  14.319  18.721 -0.1589 -0.4249  0.2025
   71mR      Rm 1583   5.438  14.625  18.672 -0.0923 -0.2807  0.5777
   72mB      Bm 1584   5.179  14.037  18.518 -0.5633 -0.1471 -0.0201
   73mA      Am 1585   5.146  13.758  18.269 -0.2693 -0.7521 -0.3858
   74mB      Bm 1586   5.273  13.555  17.990 -0.1323  0.4519  0.3255
   75mC      Cm 1587   5.513  13.459  17.722 -1.1078  0.1777  0.7554
   76mC      Cm 1588   5.904  13.389  17.609 -0.0158 -1.3014 -1.2428
   77mR      Rm 1589   5.669  13.566  17.439  0.6259  0.3395 -1.3354
   78mB      Bm 1590   6.271  13.364  17.665  0.0159 -0.6638  0.3636
   79mA      Am 1591   6.613  13.452  17.762  0.2888 -0.1359  0.0740
   80mB      Bm 1592   6.839  13.715  17.903 -0.6205 -0.3311  0.0585
   81mC      Cm 1593   6.966  14.029  18.054  0.7418 -0.5514 -0.3670
   82mC      Cm 1594   6.909  14.353  18.301 -0.4313 -0.0854 -0.1204
   83mR      Rm 1595   7.039  14.347  17.982 -0.7881  0.3765  0.1714
   84mB      Bm 1596   6.700  14.570  18.534  0.1266  0.7485  1.0357
   85mA      Am 1597   6.439  14.769  18.695 -0.3561  0.1201  0.1443
   86mB      Bm 1598   6.084  14.883  18.683 -0.4961  0.5328 -0.4376
   87mC      Cm 1599   5.741  14.927  18.562 -1.0555 -0.6661  0.4170
   88mC      Cm 1600   5.393  14.828  18.382  0.7833 -0.4195  1.1609
   89mR      Rm 1601   5.571  15.118  18.335 -0.4277 -0.5346 -0.3908
   90mB      Bm 1602   5.166  14.611  18.191  0.2586  0.7672  0.2793
   91mA      Am 1603   5.041  14.369  17.938 -0.3227 -0.5171 -0.3936
   92mB      Bm 1604   5.139  14.156  17.643  0.6329 -0.1342  0.4227
   93mC      Cm 1605   5.338  14.022  17.372 -0.3136 -0.5591 -0.7282
   94mC      Cm 1606   5.688  13.872  17.216  0.1398  0.5904 -0.6650
   95mR      Rm 1607   5.469  14.091  17.074 -0.3716 -0.6278 -0.7032
   96mB      Bm 1608   6.046  13.785  17.207 -0.4875 -0.2528 -0.1788
   97mA      Am 1609   6.408  13.802  17.248 -0.0053  0.3082  0.8167
   98mB      Bm 1610   6.686  14.031  17.345 -0.0317  0.1429 -0.4038
   99mC      Cm 1611   6.862  14.333  17.464 -0.4789 -1.1098  0.6867
  100mC      Cm 1612   6.938  14.662  17.705  0.5802  0.8951  0.9675
  101mR      Rm 1613   6.978  14.628  17.371  0.2543  0.3362 -0.3111
  102mB      Bm 1614   6.851  14.913  17.967  0.1127 -0.1123 -0.3755
  103mA      Am 1615   6.653  15.162  18.169  0.1543  0.1958  0.0909
  104mB      Bm 1616   6.328  15.339  18.201 -0.5136 -1.0692  0.5145
  105mC      Cm 1617   5.978  15.459  18.133  1.0357 -0.1363 -1.1106
  106mC      Cm 1618   5.586  15.423  18.025 -1.4521 -0.6683  0.5866
  107mR      Rm 1619   5.814  15.657  17.923  1.0030  1.8362 -0.6361
  108tB      Bt 1620   5.291  15.233  17.923 -0.1078 -0.4963  0.5359
    1hA      Ah 1621   6.678   5.592  24.928 -0.0626  0.1242 -0.3449
    2mB      Bm 1622   7.008   5.515  25.075 -0.0186 -0.2506  1.1344
    3mC      Cm 1623   7.273   5.358  25.278  0.1546 -0.0270 -1.0852
    4mC      Cm 1624   7.513   5.050  25.418 -0.0251 -1.0291  0.0222
    5mR      Rm 1625   7.398   5.319  25.589  0.1318  0.4716  0.2212
    6mB      Bm 1626   7.610   4.701  25.468 -1.1355  1.5290 -0.5753
    7mA      Am 1627   7.584   4.343  25.558  0.0820  0.2760  0.6661
    8mB      Bm 1628   7.370   4.060  25.689 -0.2211  0.1067  0.9579
    9mC      Cm 1629   7.088   3.848  25.824  0.1562  0.6853 -0.7332
   10mC      Cm 1630   6.696   3.734  25.793 -0.1993  0.0088 -0.4076
   11mR      Rm 1631   6.867   3.798  26.082  0.5003  0.4125 -0.7183
   12mB      Bm 1632   6.353   3.753  25.652  0.3068  0.4653 -0.1417
   13mA      Am 1633   6.046   3.917  25.522  0.5931 -0.2280 -0.2144
   14mB      Bm 1634   5.890   4.250  25.457  0.1369 -0.3456 -0.6714
   15mC      Cm 1635   5.838   4.621  25.448 -0.6700 -0.3683 -0.0619
   16mC      Cm 1636   5.928   5.019  25.405 -0.2063  0.0978  0.6998
   17mR      Rm 1637   5.743   4.880  25.646  0.4643  1.8662  0.1098
   18mB      Bm 1638   6.161   5.308  25.333  1.1948 -0.0032 -0.3810
   19mA      Am 1639   6.449   5.545  25.362 -0.1398 -0.3099 -0.2119
   20mB      Bm 1640   6.762   5.602  25.553  0.0138 -0.2986  0.5588
   21mC      Cm 1641   7.045   5.583  25.794 -0.7958 -0.2927 -0.3725
   22mC      Cm 1642   7.366   5.400  25.992  0.9403 -0.2436 -0.5681
   23mR      Rm 1643   7.145   5.622  26.119  0.0205  1.0655  0.2397
   24mB      Bm 1644   7.588   5.126  26.111 -0.3061 -0.0542  0.2535
   25mA      Am 1645   7.702   4.818  26.271 -0.0808 -0.9200  0.2135
   26mB      Bm 1646   7.620   4.510  26.454  0.8711  0.7435  0.1587
   27mC      Cm 1647   7.435   4.237  26.631 -0.9639  0.3865  0.2803
   28mC      Cm 1648   7.108   4.008  26.672  1.1346  0.9011 -0.7474
   29mR      Rm 1649   7.266   4.162  26.916  0.6227  0.6977  1.5595
   30mB      Bm 1650   6.761   3.884  26.585  0.4234 -0.0626 -0.2835
   31mA      Am 1651   6.397   3.886  26.497  0.1579  0.4414 -0.7663
   32mB      Bm 1652   6.113   4.104  26.431 -0.3416 -0.1248 -0.0432
   33mC      Cm 1653   5.895   4.399  26.368 -0.1414  0.2486 -0.6213
   34mC      Cm 1654   5.807   4.772  26.243 -0.5374 -0.7628  0.4483
   35mR      Rm 1655   5.739   4.634  26.543 -0.1703 -0.4408 -0.5456
   36mB      Bm 1656   5.883   5.095  26.077 -0.0529 -0.1393  0.0472
   37mA      Am 1657   6.050   5.414  26.012 -0.5375 -0.4112 -0.2338
   38mB      Bm 1658   6.319   5.643  26.120  0.2967  0.4080  0.1127
   39mC      Cm 1659   6.598   5.776  26.315 -0.2875  0.4858  0.0847
   40mC      Cm 1660   6.945   5.764  26.530 -0.6140 -0.0975  0.3344
   41mR      Rm 1661   6.673   5.937  26.599 -1.6079 -0.4078 -0.5607
   42mB      Bm 1662   7.245   5.607  26.690  0.2019 -1.1489  0.5054
   43mA      Am 1663   7.453   5.386  26.880  0.1142  0.7525  0.2719
   44mB      Bm 1664   7.475   5.085  27.101 -0.2385  0.0335 -0.1567
   45mC      Cm 1665   7.374   4.805  27.311 -0.0046 -0.1471  0.1146
   46mC      Cm 1666   7.128   4.496  27.414 -0.4875  0.2443 -0.7099
   47mR      Rm 1667   7.255   4.728  27.626 -0.2823 -1.4097 -0.3578
   48mB      Bm 1668   6.836   4.275  27.370 -0.0471 -0.6771 -0.2112
   49mA      Am 1669   6.484   4.171  27.296 -1.1321  0.0650  0.2880
   50mB      Bm 1670   6.159   4.286  27.190  0.1740  1.0532 -0.0362
   51mC      Cm 1671   5.885   4.530  27.088 -0.8459 -0.3683  0.7234
   52mC      Cm 1672   5.761   4.870  26.904  0.2710  0.3043  1.4026
   53mR      Rm 1673   5.655   4.752  27.197  1.3484 -0.4091 -0.5391
   54mB      Bm 1674   5.769   5.201  26.709 -0.4117  0.3642 -0.2565
   55mA      Am 1675   5.864   5.548  26.615 -0.4333 -1.1040  0.2521
   56mB      Bm 1676   6.084   5.834  26.679  0.9613  0.7950  0.5141
   57mC      Cm 1677   6.345   6.031  26.857  0.7642  0.5859  0.6403
   58mC      Cm 1678   6.705   6.065  27.038 -0.9933 -0.7142  0.0304
   59mR      Rm 1679   6.409   6.183  27.156 -0.4396 -0.5972 -0.4979
   60mB      Bm 1680   7.033   5.938  27.166  0.1774  0.5108 -0.5484
   61mA      Am 1681   7.267   5.720  27.359 -0.9447  0.1170  1.1755
   62mB      Bm 1682   7.314   5.441  27.588  0.1929 -0.7518  0.3669
   63mC      Cm 1683   7.216   5.169  27.824  0.3436  0.8480  0.1834
   64mC      Cm 1684   6.995   4.837  27.925  0.3468  0.2698 -0.3205
   65mR      Rm 1685   7.083   5.100  28.128  0.2679  0.4095 -0.2457
   66mB      Bm 1686   6.718   4.591  27.879  0.1856 -0.8123 -0.2827
   67mA      Am 1687   6.393   4.463  27.807  0.0327 -0.2302 -0.2654
   68mB      Bm 1688   6.055   4.542  27.719 -0.6224 -0.0117 -0.5616
   69mC      Cm 1689   5.755   4.745  27.653 -0.8013  0.5565  0.2454
   70mC      Cm 1690   5.554   5.069  27.509  0.0221 -0.0855  0.4838
   71mR      Rm 1691   5.503   4.918  27.801  0.2867 -0.4756 -2.8297
   72mB      Bm 1692   5.529   5.394  27.333  0.0107  0.5421 -0.2312
   73mA      Am 1693   5.609   5.731  27.204  0.0554  0.1976  0.2592
   74mB      Bm 1694   5.848   6.009  27.262  0.0799  0.2133  0.0205
   75mC      Cm 1695   6.110   6.234  27.387  0.2330 -0.7322 -0.1208
   76mC      Cm 1696   6.485   6.321  27.521  0.5354 -0.4738 -0.8088
   77mR      Rm 1697   6.186   6.453  27.632  0.9326 -0.1401 -0.5552
   78mB      Bm 1698   6.824   6.208  27.629  0.5701 -0.5462  0.0878
   79mA      Am 1699   7.091   6.020  27.801 -0.1367  0.6303 -0.0990
   80mB      Bm 1700   7.173   5.756  28.055  0.1513  0.1604 -0.0713
   81mC      Cm 1701   7.130   5.482  28.295 -0.4912 -0.6479 -0.0785
   82mC      Cm 1702   6.939   5.163  28.451  2.1567 -0.1717  0.1128
   83mR      Rm 1703   7.055   5.431  28.624 -0.1459 -1.0842  1.0606
   84mB      Bm 1704   6.662   4.916  28.466  0.3264  0.9407 -0.4282
   85mA      Am 1705   6.314   4.775  28.447 -1.0120 -0.4207  0.8115
   86mB      Bm 1706   5.961   4.852  28.361 -0.3678  1.1450  0.4579
   87mC      Cm 1707   5.638   5.018  28.273 -0.2065  0.2753 -0.3099
   88mC      Cm 1708   5.413   5.301  28.077 -0.1979  0.2393  0.7141
   89mR      Rm 1709   5.400   5.212  28.393 -0.6409 -0.6829  0.1007
   90mB      Bm 1710   5.378   5.603  27.860 -0.0825  0.3450 -0.1743
   91mA      Am 1711   5.436   5.931  27.713  0.4105  0.8073 -0.3271
   92mB      Bm 1712   5.623   6.251  27.726  0.4005  0.4604  0.4234
   93mC      Cm 1713   5.864   6.517  27.834  0.7058 -0.6429  0.0173
   94mC      Cm 1714   6.235   6.646  27.954 -0.0110  0.7172  0.4509
   95mR      Rm 1715   5.940   6.730  28.081  0.6776 -0.3555  0.7383
   96mB      Bm 1716   6.591   6.603  28.049 -0.1928 -0.3355  0.6878
   97mA      Am 1717   6.899   6.491  28.221  0.6690 -0.1353  0.2670
   98mB      Bm 1718   7.043   6.273  28.474  0.1842 -0.5865 -0.7016
   99mC      Cm 1719   7.047   6.030  28.761 -1.0013 -0.2779  0.6554
  100mC      Cm 1720   6.911   5.699  28.954  0.4862  0.7229  0.7789
  101mR      Rm 1721   6.986   5.993  29.087  0.4083 -0.4122 -0.6053
  102mB      Bm 1722   6.704   5.393  29.008  0.7727 -1.1666 -0.4536
  103mA      Am 1723   6.426   5.161  29.047 -0.0780  0.2546  0.3721
  104mB      Bm 1724   6.071   5.130  29.082 -0.7022  0.8118 -0.3528
  105mC      Cm 1725   5.702   5.202  29.123 -0.2396 -0.0040 -0.6021
  106mC      Cm 1726   5.348   5.403  29.037  0.4966 -0.3803 -0.3003
  107mR      Rm 1727   5.457   5.312  29.339 -0.3485  0.0576  0.8466
  108tB      Bt 1728   5.050   5.456  28.820 -0.0359  0.4755 -0.1970
    1hA      Ah 1729   9.385   9.673  31.092 -0.0156 -0.0275  0.7864
    2mB      Bm 1730   9.184   9.887  30.878  0.3311  0.6065 -0.5437
    3mC      Cm 1731   8.986  10.179  30.761  1.0338 -0.4939 -0.2524
    4mC      Cm 1732   8.913  10.569  30.672  0.5220  0.3058 -0.6748
    5mR      Rm 1733   8.702  10.354  30.816  0.3218  0.6568  0.9357
    6mB      Bm 1734   8.998  10.920  30.617 -0.9001 -0.0898  0.2760
    7mA      Am 1735   9.132  11.248  30.686  0.1815 -0.3301 -0.5949
    8mB      Bm 1736   9.299  11.487  30.925 -0.2505  0.4414  0.0023
    9mC      Cm 1737   9.445  11.620  31.234  0.7929 -0.0225  0.7849
   10mC      Cm 1738   9.674  11.569  31.565 -0.1127 -0.3405 -0.2479
   11mR      Rm 1739   9.353  11.677  31.559  2.0716  0.8410  1.4602
   12mB      Bm 1740   9.911  11.411  31.795 -0.1700  0.0209  0.0640
   13mA      Am 1741  10.077  11.172  32.022 -0.3412  0.6343  0.1622
   14mB      Bm 1742  10.037  10.838  32.171  0.3218 -0.0404 -0.4444
   15mC      Cm 1743   9.876  10.507  32.262  0.0470 -0.1407 -1.1590
   16mC      Cm 1744   9.635  10.190  32.171  0.2249  0.0882 -0.1830
   17mR      Rm 1745   9.657  10.356  32.463  0.4736  0.2634  1.6153
   18mB      Bm 1746   9.421   9.943  31.978 -0.0575  0.2110  0.1221
   19mA      Am 1747   9.162   9.784  31.769 -0.1741  0.3652 -0.3565
   20mB      Bm 1748   8.851   9.819  31.574 -0.8799  0.7530  0.3663
   21mC      Cm 1749   8.547   9.977  31.434  0.8451 -0.6153 -0.4477
   22mC      Cm 1750   8.337  10.271  31.252 -0.4666 -0.8336 -0.1116
   23mR      Rm 1751   8.232  10.063  31.489 -0.1820 -1.5336 -0.6205
   24mB      Bm 1752   8.328  10.618  31.118  0.2892  1.1869  0.4723
   25mA      Am 1753   8.374  10.985  31.078  0.6017 -0.6185 -0.2561
   26mB      Bm 1754   8.534  11.275  31.237  0.4698 -0.5013 -0.6792
   27mC      Cm 1755   8.707  11.518  31.455  0.4814 -0.6487  0.3610
   28mC      Cm 1756   8.968  11.622  31.750 -1.0154  0.1843 -2.2878
   29mR      Rm 1757   8.653  11.727  31.720 -0.1593 -0.2181  0.9824
   30mB      Bm 1758   9.237  11.541  32.000  0.4617 -0.0364  0.0579
   31mA      Am 1759   9.429  11.366  32.275  0.1608  0.7191 -0.0923
   32mB      Bm 1760   9.492  11.093  32.507  0.3624 -0.1400  0.9845
   33mC      Cm 1761   9.429  10.756  32.663 -0.4880 -0.6293 -0.0325
   34mC      Cm 1762   9.266  10.381  32.652 -0.1203 -0.2384  0.1106
   35mR      Rm 1763   9.209  10.623  32.876 -0.3450 -1.6283 -0.6357
   36mB      Bm 1764   9.090  10.088  32.497 -0.0150 -0.5131  0.0877
   37mA      Am 1765   8.857   9.864  32.308  0.0159 -0.0879  0.5246
   38mB      Bm 1766   8.552   9.876  32.104  0.8402 -0.2394 -0.7505
   39mC      Cm 1767   8.232   9.973  31.932 -0.3339  0.2254  0.4680
   40mC      Cm 1768   7.997  10.235  31.729 -0.1551  1.0100 -0.0355
   41mR      Rm 1769   7.910  10.061  31.994  0.5963  0.3576  0.3634
   42mB      Bm 1770   7.940  10.557  31.543  0.2510 -1.0490 -0.2166
   43mA      Am 1771   7.938  10.906  31.435 -0.7114  0.2278 -0.3580
   44mB      Bm 1772   8.032  11.251  31.527 -0.0494  0.4349  0.5258
   45mC      Cm 1773   8.155  11.530  31.743 -1.1892 -0.0331 -1.0096
   46mC      Cm 1774   8.417  11.669  32.012 -0.2359  0.5816  0.7775
   47mR      Rm 1775   8.094  11.726  32.014  0.9863  0.2042 -0.1378
   48mB      Bm 1776   8.713  11.634  32.238  0.0135  0.6791  0.5274
   49mA      Am 1777   8.944  11.497  32.489 -0.2230  0.2499  0.1212
   50mB      Bm 1778   9.009  11.218  32.733  0.1188  0.5621  0.1833
   51mC      Cm 1779   8.956  10.913  32.932 -1.2134  0.7739  1.1004
   52mC      Cm 1780   8.831  10.527  32.981 -0.6174 -0.8390  0.0186
   53mR      Rm 1781   8.789  10.791  33.195 -0.9478  0.7132  0.5335
   54mB      Bm 1782   8.649  10.229  32.843 -1.3394 -0.1940  0.1762
   55mA      Am 1783   8.400   9.998  32.674  0.6019 -0.1775 -0.7043
   56mB      Bm 1784   8.085   9.940  32.498  0.3840 -0.0991  0.1101
   57mC      Cm 1785   7.766   9.989  32.320 -0.3671 -1.1659  0.1027
   58mC      Cm 1786   7.524  10.184  32.057  0.4581  1.3608 -1.1063
   59mR      Rm 1787   7.435  10.057  32.349 -0.3128  0.5622 -0.2889
   60mB      Bm 1788   7.458  10.463  31.829 -0.5684 -0.6119  0.5660
   61mA      Am 1789   7.435  10.806  31.701 -0.4753 -1.1671  0.5153
   62mB      Bm 1790   7.496  11.157  31.827  0.7286 -0.9348  0.1590
   63mC      Cm 1791   7.559  11.461  32.023 -1.2004 -0.2237 -1.1699
   64mC      Cm 1792   7.802  11.674  32.282 -1.0940 -0.1048  0.9380
   65mR      Rm 1793   7.453  11.653  32.271  1.7608  0.5047 -0.7723
   66mB      Bm 1794   8.096  11.735  32.498 -0.5374 -0.2168  1.2378
   67mA      Am 1795   8.363  11.688  32.749  0.2313 -0.8093 -0.0043
   68mB      Bm 1796   8.460  11.450  33.006  0.3838  0.8919  0.0997
   69mC      Cm 1797   8.450  11.181  33.246 -0.0958  0.9061 -0.3158
   70mC      Cm 1798   8.361  10.799  33.367 -0.2552 -0.9828 -0.3655
   71mR      Rm 1799   8.329  11.083  33.547  0.5171 -0.2727 -0.0866
   72mB      Bm 1800   8.196  10.484  33.291  0.3702  0.8433 -0.3171
   73mA      Am 1801   7.956  10.221  33.160 -0.3067  0.3507  0.5080
   74mB      Bm 1802   7.633  10.129  32.967  0.0825  0.2963  0.5268
   75mC      Cm 1803   7.318  10.124  32.771  0.7209  0.5646 -1.5518
   76mC      Cm 1804   7.096  10.204  32.436 -0.1971  0.0329 -1.0353
   77mR      Rm 1805   6.988  10.194  32.765 -0.2243  1.4101 -0.0019
   78mB      Bm 1806   7.013  10.367  32.118  0.1431  0.5198  0.2113
   79mA      Am 1807   6.944  10.624  31.856 -0.8642 -0.8621  0.4615
   80mB      Bm 1808   6.912  10.976  31.769  0.0610 -0.0571 -0.3644
   81mC      Cm 1809   6.895  11.351  31.805  0.2662  0.6237  0.8044
   82mC      Cm 1810   7.017  11.736  31.893  0.7657  1.1226  0.3492
   83mR      Rm 1811   6.717  11.601  31.940 -0.3169 -0.4129  0.5933
   84mB      Bm 1812   7.249  11.994  32.019  1.2377 -0.2130 -1.1741
   85mA      Am 1813   7.480  12.186  32.239  0.7813  0.5030 -0.0972
   86mB      Bm 1814   7.668  12.202  32.565 -0.4367  0.1671  0.5570
   87mC      Cm 1815   7.784  12.116  32.908 -0.3005  1.2159 -0.3807
   88mC      Cm 1816   7.917  11.835  33.178 -0.9713 -0.3217 -0.7830
   89mR      Rm 1817   7.716  12.102  33.240 -0.3689 -0.5665 -0.5815
   90mB      Bm 1818   8.022  11.489  33.293  0.1788 -0.4630 -0.3043
   91mA      Am 1819   7.961  11.141  33.378  0.2205  0.2467 -1.9862
   92mB      Bm 1820   7.704  10.865  33.418 -0.7204  0.2448  0.2507
   93mC      Cm 1821   7.379  10.680  33.450  0.0442  0.9359  0.1793
   94mC      Cm 1822   6.993  10.577  33.336  0.1222  0.3013  0.4125
   95mR      Rm 1823   7.106  10.626  33.643 -0.5905  0.1641 -0.4595
   96mB      Bm 1824   6.686  10.625  33.130  0.0119  0.2592 -0.5189
   97mA      Am 1825   6.424  10.789  32.929 -0.6251 -0.1202  0.1601
   98mB      Bm 1826   6.308  11.105  32.764 -0.7064 -0.1822  0.0758
   99mC      Cm 1827   6.302  11.470  32.677  0.5527 -0.1849 -0.6070
  100mC      Cm 1828   6.459  11.834  32.564  0.0107  0.4824  0.1875
  101mR      Rm 1829   6.207  11.770  32.785 -0.8582  0.3907  0.3605
  102mB      Bm 1830   6.695  12.109  32.474  1.0775 -0.3513 -0.2354
  103mA      Am 1831   6.959  12.361  32.480  0.5358 -0.4363  0.3866
  104mB      Bm 1832   7.241  12.540  32.640  0.3849 -0.3693 -0.4345
  105mC      Cm 1833   7.481  12.605  32.910 -0.8127  1.4401 -1.3203
  106mC      Cm 1834   7.763  12.513  33.191  0.7367  0.2572  0.8664
  107mR      Rm 1835   7.514  12.740  33.209  0.5998 -0.1606 -0.0648
  108tB      Bt 1836   8.097  12.443  33.335  0.1168 -0.3323  0.2566
    1hA      Ah 1837   4.271   9.951  12.436  0.2266 -0.2114  0.1202
    2mB      Bm 1838   4.078   9.669  12.302 -0.6224 -0.4411 -0.0051
    3mC      Cm 1839   3.816   9.410  12.268 -0.0008 -0.2705 -0.1881
    4mC      Cm 1840   3.433   9.290  12.201  0.3388 -0.1726  0.5170
    5mR      Rm 1841   3.663   9.150  12.408  0.1442 -0.1064 -0.4730
    6mB      Bm 1842   3.072   9.351  12.141 -0.9871  0.1377 -0.7006
    7mA      Am 1843   2.726   9.490  12.165  0.7573  0.1259  0.0675
    8mB      Bm 1844   2.515   9.723  12.363  0.6371 -0.3618  0.3514
    9mC      Cm 1845   2.409   9.976  12.614  0.7134  0.5482 -0.6547
   10mC      Cm 1846   2.430  10.332  12.814  0.0326 -0.1968  0.4795
   11mR      Rm 1847   2.332  10.035  12.940 -0.0805 -0.0772 -0.3949
   12mB      Bm 1848   2.605  10.650  12.905  0.5907  0.0111 -0.3959
   13mA      Am 1849   2.862  10.895  13.003 -0.5990  0.3559  0.1906
   14mB      Bm 1850   3.209  10.921  13.127  0.0583  0.0927 -1.1118
   15mC      Cm 1851   3.547  10.823  13.239  0.0292 -0.2874  0.7045
   16mC      Cm 1852   3.869  10.584  13.224  0.5899 -0.9494  1.1265
   17mR      Rm 1853   3.714  10.675  13.503  0.2827 -0.0536 -0.7907
   18mB      Bm 1854   4.091  10.315  13.080 -0.6165 -0.6944  0.9512
   19mA      Am 1855   4.201   9.990  12.950  0.3527  0.2442 -0.2262
   20mB      Bm 1856   4.111   9.641  12.876  0.3493  0.3753 -0.4348
   21mC      Cm 1857   3.919   9.323  12.857  0.0362 -1.4617 -0.3821
   22mC      Cm 1858   3.565   9.128  12.822  1.0148  0.0047 -0.1643
   23mR      Rm 1859   3.812   9.058  13.041  0.6581  0.3948 -0.6569
   24mB      Bm 1860   3.189   9.111  12.791 -0.0262  0.7312  0.1994
   25mA      Am 1861   2.830   9.180  12.831  0.0804  0.0544  0.2335
   26mB      Bm 1862   2.560   9.389  12.977 -0.1925 -0.4409 -0.3256
   27mC      Cm 1863   2.403   9.667  13.166 -0.8421  0.0689  0.7909
   28mC      Cm 1864   2.396  10.037  13.336 -0.7022  0.0244 -1.1092
   29mR      Rm 1865   2.292   9.745  13.479 -0.0519 -0.0086  1.2692
   30mB      Bm 1866   2.541  10.377  13.414  0.3599 -0.0304  0.5140
   31mA      Am 1867   2.783  10.637  13.513  0.6065  0.7437  0.3353
   32mB      Bm 1868   3.122  10.713  13.640  0.4345  0.2593 -0.4796
   33mC      Cm 1869   3.462  10.646  13.771 -0.7959 -0.7937  0.9831
   34mC      Cm 1870   3.811  10.449  13.758 -0.4493  0.8752 -0.9148
   35mR      Rm 1871   3.648  10.550  14.031  0.0856 -0.1318 -0.2071
   36mB      Bm 1872   4.073  10.213  13.646 -0.4213 -0.4790  0.4430
   37mA      Am 1873   4.238   9.907  13.536 -0.4266  0.1124  0.2137
   38mB      Bm 1874   4.197   9.548  13.475  0.5449 -0.3433 -0.8327
   39mC      Cm 1875   4.045   9.212  13.458 -0.2147  0.1648  0.0431
   40mC      Cm 1876   3.727   8.962  13.412 -0.4762  0.2177 -0.4577
   41mR      Rm 1877   3.955   8.965  13.665  1.3382  0.3795  0.4180
   42mB      Bm 1878   3.366   8.892  13.365 -0.5012  0.0417  0.0134
   43mA      Am 1879   2.997   8.930  13.367  0.0985 -0.3150 -0.3111
   44mB      Bm 1880   2.699   9.115  13.494 -0.5064  0.2841 -0.2833
   45mC      Cm 1881   2.496   9.367  13.695  0.2071  0.4497  0.2081
   46mC      Cm 1882   2.434   9.732  13.866 -0.0773  1.2123 -0.2769
   47mR      Rm 1883   2.393   9.432  14.009  0.4170 -0.5754 -0.6938
   48mB      Bm 1884   2.532  10.085  13.944 -0.5321 -0.3281  0.0675
   49mA      Am 1885   2.748  10.372  14.054 -0.1332  0.0255 -0.0153
   50mB      Bm 1886   3.077  10.475  14.199  0.0120 -0.4346 -0.3107
   51mC      Cm 1887   3.419  10.460  14.338  0.7811  0.3337  1.1603
   52mC      Cm 1888   3.791  10.308  14.339 -0.4393  1.0116 -0.5408
   53mR      Rm 1889   3.607  10.404  14.606  0.1407 -0.0751 -0.0329
   54mB      Bm 1890   4.057  10.089  14.225 -0.2194 -0.3028 -0.6682
   55mA      Am 1891   4.241   9.789  14.131 -0.0299  0.5779  0.1541
   56mB      Bm 1892   4.216   9.423  14.079 -0.8012 -0.5395 -0.1853
   57mC      Cm 1893   4.087   9.081  14.061  0.3537  0.6298 -0.0586
   58mC      Cm 1894   3.798   8.801  13.981 -0.0986 -0.3796 -0.2215
   59mR      Rm 1895   4.001   8.817  14.247  0.8691 -0.0323 -0.2491
   60mB      Bm 1896   3.462   8.691  13.877  0.1673  0.5252  0.5668
   61mA      Am 1897   3.088   8.670  13.859 -0.1176 -0.6501  0.6233
   62mB      Bm 1898   2.768   8.796  14.005  0.0521 -0.1148 -0.4702
   63mC      Cm 1899   2.537   9.000  14.216  0.5805 -0.8895 -1.3421
   64mC      Cm 1900   2.439   9.362  14.397  0.0933  1.0314  0.2362
   65mR      Rm 1901   2.436   9.060  14.534 -0.8034 -0.2173  0.4321
   66mB      Bm 1902   2.456   9.720  14.469  0.1109 -0.0508 -0.6771
   67mA      Am 1903   2.596  10.047  14.571 -0.8226 -0.0112 -0.1920
   68mB      Bm 1904   2.901  10.207  14.718  0.6180 -1.1084  0.1764
   69mC      Cm 1905   3.238  10.257  14.869  0.2732  0.3270 -1.5070
   70mC      Cm 1906   3.631  10.165  14.914 -0.6526 -0.1477  0.1301
   71mR      Rm 1907   3.410  10.201  15.154  0.5783  0.1873  0.5395
   72mB      Bm 1908   3.931   9.982  14.794  0.5994 -0.3599  1.0788
   73mA      Am 1909   4.161   9.722  14.680  0.4043  0.6120 -0.0361
   74mB      Bm 1910   4.213   9.356  14.653 -0.0096 -0.7891 -0.2960
   75mC      Cm 1911   4.145   8.991  14.653  0.2054  1.1546 -0.0254
   76mC      Cm 1912   3.903   8.673  14.565 -0.0707 -0.6690 -1.0636
   77mR      Rm 1913   4.079   8.723  14.850 -0.1785  0.4112  0.0503
   78mB      Bm 1914   3.592   8.507  14.447 -0.8613  0.2133 -0.2140
   79mA      Am 1915   3.230   8.425  14.405  0.2138 -0.2895  0.1397
   80mB      Bm 1916   2.903   8.515  14.538 -0.3679  0.2320  0.5311
   81mC      Cm 1917   2.640   8.688  14.742 -0.8885 -0.5131 -1.0751
   82mC      Cm 1918   2.470   9.013  14.914 -0.4332  1.2640  0.2608
   83mR      Rm 1919   2.520   8.710  15.059  2.2932 -1.3391  0.3550
   84mB      Bm 1920   2.441   9.378  14.981  0.7479  0.0731  0.0920
   85mA      Am 1921   2.560   9.707  15.086 -0.1049 -0.5272 -0.7223
   86mB      Bm 1922   2.824   9.929  15.235 -0.3052  1.0356  0.6104
   87mC      Cm 1923   3.145  10.025  15.391 -0.1590  0.0591 -0.7001
   88mC      Cm 1924   3.553  10.000  15.415 -0.5360  0.1251  0.5910
   89mR      Rm 1925   3.344  10.026  15.670 -0.2013 -0.6320 -1.8525
   90mB      Bm 1926   3.885   9.868  15.311 -0.4699  0.3802 -0.0407
   91mA      Am 1927   4.142   9.616  15.225 -0.1318  0.6985 -0.0022
   92mB      Bm 1928   4.222   9.259  15.193 -0.1596 -0.6831 -0.4154
   93mC      Cm 1929   4.201   8.890  15.204  1.1148  1.0612  0.0485
   94mC      Cm 1930   3.998   8.535  15.139 -0.0213 -0.2134 -0.0311
   95mR      Rm 1931   4.164   8.631  15.414  0.2541  1.3259 -0.2733
   96mB      Bm 1932   3.697   8.341  15.045 -0.5957 -0.5003 -0.2678
   97mA      Am 1933   3.347   8.232  15.016 -0.2480  0.2579  0.0231
   98mB      Bm 1934   2.994   8.296  15.109  0.1503 -0.4582 -0.5401
   99mC      Cm 1935   2.705   8.446  15.273  0.1411 -0.5532 -0.5935
  100mC      Cm 1936   2.509   8.764  15.434 -0.9177  0.4921  0.0289
  101mR      Rm 1937   2.572   8.469  15.593 -0.5759 -0.0628  0.7981
  102mB      Bm 1938   2.435   9.121  15.501  0.1778 -0.0173 -0.1828
  103mA      Am 1939   2.499   9.469  15.617 -0.2314 -0.5384 -0.3652
  104mB      Bm 1940   2.745   9.691  15.771 -0.3834  0.6771  0.3410
  105mC      Cm 1941   3.043   9.825  15.921  0.2432  0.1204 -0.1793
  106mC      Cm 1942   3.449   9.878  15.966  1.4424 -0.9633 -0.3875
  107mR      Rm 1943   3.224   9.824  16.213 -0.3629  0.1763 -0.0608
  108tB      Bt 1944   3.804   9.834  15.894 -0.0311  0.3327  0.3417
    1hA      Ah 1945   4.947   7.693  15.950  0.2334 -0.2431 -0.2976
    2mB      Bm 1946   4.594   7.740  16.016  0.0847 -0.1268 -0.0114
    3mC      Cm 1947   4.217   7.735  16.015 -0.9221  0.9011 -0.5351
    4mC      Cm 1948   3.868   7.526  16.015  0.8548  0.7516 -0.2262
    5mR      Rm 1949   3.945   7.792  15.818  0.3663 -1.0265  0.1283
    6mB      Bm 1950   3.642   7.233  16.056  0.4177  0.0270 -0.9260
    7mA      Am 1951   3.479   6.900  16.013 -0.3591  0.5542 -0.2872
    8mB      Bm 1952   3.471   6.565  15.853 -0.8313 -0.0024  0.4046
    9mC      Cm 1953   3.562   6.276  15.641  0.7973  0.6498 -0.9695
   10mC      Cm 1954   3.823   6.020  15.444  0.9029  0.5569 -0.6547
   11mR      Rm 1955   3.536   6.154  15.334  0.0498  0.5715  0.3912
   12mB      Bm 1956   4.163   5.920  15.340  0.4476 -0.2456 -0.0270
   13mA      Am 1957   4.511   5.929  15.211 -0.4035 -0.0495  0.2480
   14mB      Bm 1958   4.770   6.142  15.047 -0.4233 -0.0728  0.1125
   15mC      Cm 1959   4.926   6.446  14.881  0.3405 -0.5078  0.3883
   16mC      Cm 1960   4.999   6.848  14.848 -0.8511  0.7576 -0.2550
   17mR      Rm 1961   4.913   6.638  14.598 -0.1217  0.0940 -0.2182
   18mB      Bm 1962   4.996   7.202  14.975  0.2260 -1.4152  0.0956
   19mA      Am 1963   4.854   7.525  15.108  0.6569 -0.1713 -0.4136
   20mB      Bm 1964   4.540   7.702  15.218  0.0313 -0.0082  0.1436
   21mC      Cm 1965   4.183   7.770  15.270 -0.0159  0.6485  0.2829
   22mC      Cm 1966   3.805   7.675  15.388  0.5125  1.5682 -0.0616
   23mR      Rm 1967   3.883   7.835  15.115 -0.8202 -0.9887 -1.1871
   24mB      Bm 1968   3.529   7.450  15.498  0.0336 -0.4727 -0.0993
   25mA      Am 1969   3.318   7.159  15.529 -0.4237  0.4443 -0.6490
   26mB      Bm 1970   3.224   6.828  15.378 -0.3238 -0.3637 -0.7618
   27mC      Cm 1971   3.233   6.531  15.147  0.1238  0.2768  0.4509
   28mC      Cm 1972   3.445   6.239  14.938 -1.3763 -0.5784 -0.7230
   29mR      Rm 1973   3.170   6.419  14.835  1.3308  0.2331  1.9101
   30mB      Bm 1974   3.742   6.066  14.820 -0.5225  0.0135  0.0892
   31mA      Am 1975   4.069   6.017  14.664 -0.8074 -0.8941  0.3939
   32mB      Bm 1976   4.345   6.181  14.509  0.6677  0.2283 -0.3762
   33mC      Cm 1977   4.544   6.456  14.358  0.7416 -0.4848 -0.9925
   34mC      Cm 1978   4.698   6.830  14.333 -0.5525  1.1070 -0.1410
   35mR      Rm 1979   4.583   6.637  14.077 -0.7500 -0.5617  0.1608
   36mB      Bm 1980   4.752   7.179  14.442  0.5450  0.0093  0.1916
   37mA      Am 1981   4.670   7.525  14.559  0.0926 -0.3116  0.1920
   38mB      Bm 1982   4.404   7.762  14.651 -0.0050  0.1114  0.2793
   39mC      Cm 1983   4.071   7.906  14.697 -0.2665  0.0909  0.1061
   40mC      Cm 1984   3.682   7.897  14.815  0.3307 -0.6724  0.2258
   41mR      Rm 1985   3.811   8.008  14.524  0.2355  0.7007 -1.0078
   42mB      Bm 1986   3.382   7.715  14.945  0.3558  0.3406 -0.0574
   43mA      Am 1987   3.126   7.448  14.985  0.2225 -0.4358 -0.2227
   44mB      Bm 1988   3.026   7.111  14.863 -0.1310  0.6155  0.3863
   45mC      Cm 1989   3.008   6.787  14.677  0.2870  0.2709  0.0047
   46mC      Cm 1990   3.172   6.467  14.484  0.1811  0.7700 -0.1399
   47mR      Rm 1991   2.898   6.640  14.392  0.2164 -0.7457 -0.0893
   48mB      Bm 1992   3.453   6.264  14.353 -0.9710 -0.2431 -0.0019
   49mA      Am 1993   3.769   6.183  14.193  0.2764  0.9506 -0.4005
   50mB      Bm 1994   4.066   6.312  14.012 -0.2098 -0.2043  0.3635
   51mC      Cm 1995   4.301   6.540  13.844  0.3998  1.0086  0.1879
   52mC      Cm 1996   4.490   6.894  13.808 -0.4539 -0.5740  0.1405
   53mR      Rm 1997   4.355   6.709  13.560  0.0630  0.6443  1.4049
   54mB      Bm 1998   4.586   7.244  13.905 -0.5530 -0.8278 -0.1040
   55mA      Am 1999   4.540   7.607  14.003 -0.4266  0.6833 -0.1148
   56mB      Bm 2000   4.285   7.860  14.090  0.7655 -0.3857  0.5530
   57mC      Cm 2001   3.945   8.016  14.140 -0.7223  0.9114 -0.0878
   58mC      Cm 2002   3.550   8.005  14.247  0.3395  0.3326 -0.3902
   59mR      Rm 2003   3.692   8.142  13.972 -0.5396  0.1943  0.2353
   60mB      Bm 2004   3.236   7.855  14.374 -0.3144 -0.2271  0.8240
   61mA      Am 2005   2.961   7.626  14.439 -0.4053  0.4568 -0.1343
   62mB      Bm 2006   2.822   7.293  14.353  0.1833  0.8505 -0.0533
   63mC      Cm 2007   2.773   6.972  14.178  0.0092  0.6298 -0.2321
   64mC      Cm 2008   2.924   6.641  13.988  0.6039 -0.4488 -0.9003
   65mR      Rm 2009   2.654   6.817  13.895 -0.6254  0.0928  0.0659
   66mB      Bm 2010   3.209   6.437  13.854 -0.5028 -0.4198  0.7127
   67mA      Am 2011   3.518   6.337  13.693  0.1222  0.3595  0.3340
   68mB      Bm 2012   3.820   6.453  13.503 -0.1830  0.2527 -0.7570
   69mC      Cm 2013   4.050   6.678  13.313 -0.1259  0.3540  0.1692
   70mC      Cm 2014   4.238   7.034  13.237  0.2836 -0.1583  0.1467
   71mR      Rm 2015   4.093   6.821  13.009 -0.1454 -0.7360 -0.1253
   72mB      Bm 2016   4.328   7.389  13.308 -0.9330 -0.3155  0.1341
   73mA      Am 2017   4.309   7.743  13.395 -0.2916  0.0124 -0.1323
   74mB      Bm 2018   4.086   8.023  13.510  0.5570  0.5467 -0.1578
   75mC      Cm 2019   3.773   8.210  13.593 -0.2690  0.4999  0.2547
   76mC      Cm 2020   3.395   8.258  13.741  0.2152 -0.7163  0.6902
   77mR      Rm 2021   3.524   8.372  13.449  0.0414  0.2162 -0.4572
   78mB      Bm 2022   3.100   8.125  13.900  0.1659  0.7871 -0.1956
   79mA      Am 2023   2.807   7.903  13.999  0.4893 -0.0372 -0.3996
   80mB      Bm 2024   2.635   7.603  13.887 -1.5052 -0.2351 -0.2872
   81mC      Cm 2025   2.541   7.298  13.692  0.3319  0.5799  0.5443
   82mC      Cm 2026   2.572   6.953  13.486  1.0284 -1.2097 -0.3464
   83mR      Rm 2027   2.358   7.198  13.427 -0.1143  0.5559  0.2399
   84mB      Bm 2028   2.749   6.669  13.318  0.3066  0.0487 -1.3276
   85mA      Am 2029   2.974   6.483  13.086  0.1783  0.0687  0.5172
   86mB      Bm 2030   3.219   6.482  12.799 -0.6746  1.0587 -0.3877
   87mC      Cm 2031   3.422   6.595  12.511  0.0023 -0.1578  0.0892
   88mC      Cm 2032   3.647   6.848  12.280 -0.0127  0.4231  0.1236
   89mR      Rm 2033   3.383   6.667  12.183 -0.0704 -1.3837  0.4626
   90mB      Bm 2034   3.844   7.158  12.210  0.2945 -0.1856  0.2431
   91mA      Am 2035   3.934   7.518  12.169  0.1690 -0.5749  0.2576
   92mB      Bm 2036   3.816   7.867  12.186 -0.4532  0.0120 -0.5611
   93mC      Cm 2037   3.589   8.169  12.208 -0.4497  0.5779  1.1372
   94mC      Cm 2038   3.303   8.390  12.392  0.5936 -0.4732 -0.4628
   95mR      Rm 2039   3.334   8.334  12.061 -0.4691 -0.1276  0.4478
   96mB      Bm 2040   3.056   8.482  12.659 -0.0727 -0.4375  1.1719
   97mA      Am 2041   2.774   8.444  12.886  0.9991 -0.2805 -0.1624
   98mB      Bm 2042   2.468   8.256  13.004  0.1819  0.2041  0.0021
   99mC      Cm 2043   2.210   7.999  13.032  0.0512  0.4362  0.4745
  100mC      Cm 2044   2.069   7.616  13.007  0.3728  0.1390 -0.0019
  101mR      Rm 2045   1.913   7.895  12.920 -1.1707 -1.9379  0.3329
  102mB      Bm 2046   2.106   7.265  12.918  0.7648 -0.2604  0.4804
  103mA      Am 2047   2.176   6.949  12.734 -0.7133 -0.0460 -0.0273
  104mB      Bm 2048   2.296   6.814  12.403  0.3368 -0.8617 -0.3062
  105mC      Cm 2049   2.417   6.784  12.053  0.2371  0.6992  0.1759
  106mC      Cm 2050   2.654   6.864  11.731 -0.3503  0.6213 -0.1148
  107mR      Rm 2051   2.323   6.852  11.741  0.6304  1.1680 -0.5600
  108tB      Bt 2052   2.944   6.995  11.552  0.4495  0.1454  0.7640
    1hA      Ah 2053   2.806   4.643  24.024 -0.8101 -0.1158 -0.3384
    2mB      Bm 2054   3.003   4.947  24.123 -0.4036  0.8306  0.6618
    3mC      Cm 2055   3.107   5.271  24.269 -0.7504 -0.3879  0.7083
    4mC      Cm 2056   3.129   5.545  24.575  0.1478  0.0189  1.3676
    5mR      Rm 2057   3.050   5.601  24.252  0.9436 -0.4955 -0.8183
    6mB      Bm 2058   3.098   5.667  24.918  1.0149 -0.9751 -0.4341
    7mA      Am 2059   2.965   5.757  25.252 -0.2083  0.3766  0.3651
    8mB      Bm 2060   2.665   5.744  25.473  0.8306  0.3024 -0.2475
    9mC      Cm 2061   2.312   5.679  25.603  1.2002  0.6552 -0.2531
   10mC      Cm 2062   1.970   5.460  25.633 -1.6054 -0.4105 -0.4018
   11mR      Rm 2063   1.985   5.789  25.570  0.1339  0.3324 -0.5968
   12mB      Bm 2064   1.750   5.176  25.595 -0.1650 -0.1895  0.2387
   13mA      Am 2065   1.553   4.910  25.419 -0.3910  0.3097  0.3970
   14mB      Bm 2066   1.473   4.776  25.098  0.7874  0.8912  0.4956
   15mC      Cm 2067   1.460   4.729  24.727 -0.4534  0.7790  0.4284
   16mC      Cm 2068   1.621   4.718  24.356 -0.6211 -0.4495 -0.7416
   17mR      Rm 2069   1.328   4.853  24.442  0.4801 -0.3821 -2.0030
   18mB      Bm 2070   1.881   4.728  24.097  0.0424  0.7486 -0.9652
   19mA      Am 2071   2.166   4.856  23.911  0.1886  0.1638 -0.0543
   20mB      Bm 2072   2.404   5.136  23.867  0.8212  0.1376  0.2710
   21mC      Cm 2073   2.542   5.469  23.946 -0.9047  0.1843 -0.3757
   22mC      Cm 2074   2.661   5.784  24.186  0.9319 -0.1237  0.4821
   23mR      Rm 2075   2.460   5.799  23.921  0.7074  0.7360  0.1226
   24mB      Bm 2076   2.715   5.929  24.521  0.4894 -0.4379  0.0880
   25mA      Am 2077   2.649   6.048  24.865 -0.2623 -0.5323 -0.1924
   26mB      Bm 2078   2.396   6.088  25.120  0.2706 -0.3969 -0.0492
   27mC      Cm 2079   2.070   6.093  25.292  0.0325  0.2380 -0.1480
   28mC      Cm 2080   1.706   5.920  25.377  0.0081 -0.2986  0.9225
   29mR      Rm 2081   1.770   6.247  25.293  0.0542  0.3141 -0.1888
   30mB      Bm 2082   1.454   5.647  25.345  0.3462  0.4165  0.2791
   31mA      Am 2083   1.230   5.386  25.195  0.0983 -0.1703  0.3046
   32mB      Bm 2084   1.107   5.210  24.889  0.2802  0.4681  0.2398
   33mC      Cm 2085   1.058   5.153  24.526  0.3402  1.0905 -1.1559
   34mC      Cm 2086   1.192   5.099  24.147 -0.2353  0.0359 -0.2845
   35mR      Rm 2087   0.914   5.260  24.248  0.0331  0.0468  1.3298
   36mB      Bm 2088   1.445   5.119  23.879 -0.4161  0.2406  0.4773
   37mA      Am 2089   1.729   5.241  23.674 -0.6198 -0.2670 -0.1395
   38mB      Bm 2090   1.986   5.517  23.623  0.1243 -0.0409  0.0989
   39mC      Cm 2091   2.183   5.830  23.645 -1.1451 -0.4339  1.5109
   40mC      Cm 2092   2.353   6.135  23.867  0.6417  0.0556  0.4820
   41mR      Rm 2093   2.175   6.157  23.581  0.3231  1.1546 -0.5099
   42mB      Bm 2094   2.426   6.311  24.190 -0.8150  0.3295 -0.6130
   43mA      Am 2095   2.387   6.466  24.539  0.4468 -0.8607 -0.6262
   44mB      Bm 2096   2.132   6.536  24.807 -1.2769 -0.5492 -0.6967
   45mC      Cm 2097   1.826   6.561  25.006  1.1221  0.3070 -0.1273
   46mC      Cm 2098   1.457   6.428  25.131 -0.3283 -0.8451  0.4543
   47mR      Rm 2099   1.541   6.742  25.021 -0.5941  0.6271  1.3056
   48mB      Bm 2100   1.171   6.196  25.155 -1.0897  0.2203 -0.4089
   49mA      Am 2101   0.903   5.964  25.056 -0.6601 -0.7748  0.5233
   50mB      Bm 2102   0.718   5.790  24.781 -0.3372  0.4967 -0.9313
   51mC      Cm 2103   0.620   5.709  24.429  0.3034  0.0298 -0.4645
   52mC      Cm 2104   0.710   5.614  24.048  0.4703  0.6489  0.9372
   53mR      Rm 2105   0.471   5.819  24.145  0.7863  1.3955  0.4021
   54mB      Bm 2106   0.947   5.543  23.769 -0.2135 -0.0749  0.0516
   55mA      Am 2107   1.211   5.582  23.513  0.2187  0.3235 -0.5586
   56mB      Bm 2108   1.473   5.821  23.404 -0.1089  0.3588  0.4806
   57mC      Cm 2109   1.680   6.117  23.377  0.7962 -0.0670 -0.1916
   58mC      Cm 2110   1.906   6.422  23.506 -0.6457 -0.0446 -0.3314
   59mR      Rm 2111   1.664   6.438  23.280 -0.1124  0.3242  0.2980
   60mB      Bm 2112   2.060   6.626  23.770 -0.4851 -0.1369  1.1540
   61mA      Am 2113   2.080   6.796  24.090  0.8846  0.0299 -0.5387
   62mB      Bm 2114   1.927   6.920  24.397 -0.4801  0.0418  0.6147
   63mC      Cm 2115   1.643   6.996  24.634  0.4324 -0.6864  0.4028
   64mC      Cm 2116   1.291   6.912  24.818  0.6501  0.0453  0.2286
   65mR      Rm 2117   1.387   7.215  24.708 -0.5039 -1.9420 -1.1859
   66mB      Bm 2118   0.995   6.689  24.869 -0.7539  0.3469  0.1524
   67mA      Am 2119   0.707   6.454  24.806  0.3123  0.3677 -0.4942
   68mB      Bm 2120   0.518   6.292  24.523 -0.5683  0.1067 -0.0404
   69mC      Cm 2121   0.414   6.197  24.186  0.0731 -0.3384 -0.2949
   70mC      Cm 2122   0.490   6.102  23.792 -0.6307 -0.2126  0.2416
   71mR      Rm 2123   0.250   6.307  23.901  1.1168 -0.6783 -0.7226
   72mB      Bm 2124   0.700   6.030  23.493  0.2017 -0.0904 -0.0614
   73mA      Am 2125   0.967   6.067  23.233 -0.3816  0.0124  0.4594
   74mB      Bm 2126   1.237   6.308  23.103  0.8813 -0.4849 -0.4391
   75mC      Cm 2127   1.450   6.616  23.059  0.3381  0.3165 -0.5126
   76mC      Cm 2128   1.671   6.927  23.213  0.5772  0.9618  0.5861
   77mR      Rm 2129   1.435   6.947  22.968 -0.2391 -0.4022  0.8812
   78mB      Bm 2130   1.834   7.119  23.486  0.7235  0.9228 -0.0279
   79mA      Am 2131   1.865   7.285  23.796  0.1099 -0.6443 -0.4557
   80mB      Bm 2132   1.672   7.390  24.097  0.1273 -0.1081  0.1141
   81mC      Cm 2133   1.402   7.467  24.342 -0.2796 -0.1137 -0.2086
   82mC      Cm 2134   1.067   7.355  24.546  0.4295  0.4052 -0.6110
   83mR      Rm 2135   1.136   7.668  24.418 -0.5077  0.9082  0.7048
   84mB      Bm 2136   0.795   7.123  24.627  0.5244  0.5188 -0.1204
   85mA      Am 2137   0.508   6.890  24.582 -0.1819 -0.6780  0.4260
   86mB      Bm 2138   0.293   6.758  24.301 -0.1665  0.0178  0.6649
   87mC      Cm 2139   0.159   6.692  23.956 -0.2059  0.0312 -0.2852
   88mC      Cm 2140   0.192   6.608  23.555  1.8421 -0.2967 -0.1527
   89mR      Rm 2141   0.011   6.854  23.700  0.0366 -0.3135  0.3882
   90mB      Bm 2142   0.375   6.514  23.239  0.0550  0.1012  0.7884
   91mA      Am 2143   0.621   6.523  22.962  0.0700  0.5474 -0.0124
   92mB      Bm 2144   0.880   6.738  22.801 -1.3971 -0.8197 -0.2012
   93mC      Cm 2145   1.097   7.023  22.731  0.8899 -0.2513 -0.5189
   94mC      Cm 2146   1.366   7.315  22.827 -0.0409 -0.1067 -0.7087
   95mR      Rm 2147   1.111   7.341  22.611  0.4688  0.6659 -0.1324
   96mB      Bm 2148   1.541   7.507  23.092 -0.1533  0.6799  0.2698
   97mA      Am 2149   1.615   7.695  23.392  0.3397  0.9319 -0.0969
   98mB      Bm 2150   1.484   7.840  23.720  0.2029 -0.6083 -0.4628
   99mC      Cm 2151   1.228   7.926  23.971  0.9926  0.3621 -0.5966
  100mC      Cm 2152   0.896   7.862  24.209 -1.2982 -0.7287  1.2307
  101mR      Rm 2153   0.976   8.149  24.033 -0.3921  1.3436 -0.1075
  102mB      Bm 2154   0.622   7.662  24.346 -0.4538 -0.0544  0.7604
  103mA      Am 2155   0.318   7.452  24.358  0.5950  0.0435 -0.1341
  104mB      Bm 2156   0.065   7.296  24.145  0.2642 -0.1989 -0.3307
  105mC      Cm 2157  -0.124   7.228  23.828 -0.3838  0.9348  0.0802
  106mC      Cm 2158  -0.173   7.076  23.453 -0.0013  0.0033 -0.3636
  107mR      Rm 2159  -0.312   7.356  23.586  0.7016  0.7396  0.5953
  108tB      Bt 2160  -0.057   6.926  23.136  0.0294 -0.1503 -0.2309
    1hA      Ah 2161   4.728   9.436  16.896 -0.2232  0.6128  0.5344
    2mB      Bm 2162   4.608   9.119  16.764  0.6656 -0.7714  0.1507
    3mC      Cm 2163   4.546   8.795  16.585 -0.0383 -0.3805  0.6764
    4mC      Cm 2164   4.641   8.410  16.452  0.9235 -0.1888  0.1807
    5mR      Rm 2165   4.489   8.665  16.277 -1.6113  1.1957 -1.2898
    6mB      Bm 2166   4.833   8.094  16.408  0.3075  0.4561  0.4576
    7mA      Am 2167   5.124   7.870  16.334  0.3427 -0.1819  0.1544
    8mB      Bm 2168   5.465   7.863  16.217 -1.2167 -0.3595  0.0945
    9mC      Cm 2169   5.797   7.952  16.064  1.1158 -0.2187  0.4622
   10mC      Cm 2170   6.125   8.193  16.007  0.4048 -1.0546 -0.1569
   11mR      Rm 2171   5.946   8.022  15.774 -0.5366 -0.5972  1.7083
   12mB      Bm 2172   6.333   8.502  16.056  0.6291  0.1748 -0.1324
   13mA      Am 2173   6.448   8.844  16.082 -0.6772 -0.0773  0.4493
   14mB      Bm 2174   6.356   9.199  16.039  0.1806 -0.3243 -0.2931
   15mC      Cm 2175   6.166   9.505  15.949 -0.2655  0.5105 -0.5568
   16mC      Cm 2176   5.840   9.745  15.917 -0.1202  0.5816  0.0440
   17mR      Rm 2177   6.071   9.689  15.686 -0.3876 -0.4412  0.9973
   18mB      Bm 2178   5.486   9.827  15.971 -0.9389 -0.1899  0.6815
   19mA      Am 2179   5.117   9.787  15.981  0.1455  0.0316  0.0553
   20mB      Bm 2180   4.833   9.547  15.932  0.2391  0.2747 -0.7262
   21mC      Cm 2181   4.656   9.236  15.817 -0.6817 -0.5253  0.0960
   22mC      Cm 2182   4.612   8.834  15.772  0.2825  1.1048  0.6395
   23mR      Rm 2183   4.566   9.072  15.539 -0.5907  0.0350  0.0552
   24mB      Bm 2184   4.703   8.467  15.815 -0.2910  0.5402  0.1136
   25mA      Am 2185   4.902   8.157  15.805  0.3639 -0.3888 -0.8185
   26mB      Bm 2186   5.206   7.985  15.677  0.2363  0.1859 -0.3235
   27mC      Cm 2187   5.528   7.972  15.505 -0.0542  0.0606  0.7138
   28mC      Cm 2188   5.910   8.099  15.446  0.1548 -0.1030 -0.0357
   29mR      Rm 2189   5.694   7.975  15.209 -0.1451  1.2395 -0.9556
   30mB      Bm 2190   6.213   8.314  15.480 -0.4427  0.7691 -0.3540
   31mA      Am 2191   6.414   8.621  15.474 -0.1645 -0.3890 -0.5804
   32mB      Bm 2192   6.403   8.992  15.402  0.2924  0.0479  0.5524
   33mC      Cm 2193   6.279   9.329  15.308 -0.0806 -0.4500  0.6250
   34mC      Cm 2194   5.990   9.625  15.314  0.3992  1.1307 -0.9452
   35mR      Rm 2195   6.179   9.522  15.052  0.9641 -0.2016 -0.7884
   36mB      Bm 2196   5.656   9.755  15.405  0.0534  0.0346 -0.3613
   37mA      Am 2197   5.286   9.788  15.433 -0.2382 -0.8206  0.8700
   38mB      Bm 2198   4.966   9.617  15.344 -0.4284  0.1877  0.3597
   39mC      Cm 2199   4.737   9.346  15.202  0.2236 -0.3840  0.1326
   40mC      Cm 2200   4.603   8.961  15.155 -0.3274  0.0772 -0.1619
   41mR      Rm 2201   4.605   9.204  14.926  0.7630 -0.9272  0.1931
   42mB      Bm 2202   4.649   8.590  15.197  0.1999  0.3823  0.0094
   43mA      Am 2203   4.801   8.247  15.199  0.7844 -0.1580  0.0790
   44mB      Bm 2204   5.090   8.035  15.102 -0.6698  0.5067 -0.4471
   45mC      Cm 2205   5.399   7.938  14.943 -0.2579 -0.9218 -0.0791
   46mC      Cm 2206   5.795   7.979  14.855 -1.1898  0.3665 -0.0899
   47mR      Rm 2207   5.539   7.890  14.652  0.5588  0.1724  0.6807
   48mB      Bm 2208   6.121   8.153  14.872  0.5257  0.2614 -0.9095
   49mA      Am 2209   6.365   8.432  14.878 -0.4061 -0.3864  0.1073
   50mB      Bm 2210   6.420   8.797  14.821  0.1965 -0.1226  0.0797
   51mC      Cm 2211   6.338   9.145  14.730 -0.6980 -0.3435  0.0794
   52mC      Cm 2212   6.093   9.471  14.718 -0.4019 -0.5013  0.0889
   53mR      Rm 2213   6.306   9.369  14.473  0.3133  1.2689  0.1327
   54mB      Bm 2214   5.780   9.651  14.772  0.4457 -0.2864 -0.0269
   55mA      Am 2215   5.419   9.727  14.798 -0.0251 -0.7627 -0.1516
   56mB      Bm 2216   5.083   9.581  14.733  0.5662 -0.2529  0.1097
   57mC      Cm 2217   4.801   9.353  14.644  0.3236 -0.6113  0.8775
   58mC      Cm 2218   4.595   9.002  14.617  0.2370  0.3769 -0.4059
   59mR      Rm 2219   4.644   9.233  14.376  0.0805 -0.6384  0.6797
   60mB      Bm 2220   4.557   8.640  14.651 -0.3715  1.0015  0.7910
   61mA      Am 2221   4.653   8.280  14.632  0.2687 -0.8203 -0.1075
   62mB      Bm 2222   4.917   8.037  14.532 -0.4186  0.4629  0.0391
   63mC      Cm 2223   5.236   7.925  14.364 -0.0921  0.0793  0.0550
   64mC      Cm 2224   5.634   7.937  14.276  0.4894 -0.6044  0.2488
   65mR      Rm 2225   5.378   7.846  14.066  0.6984  0.5327  0.1595
   66mB      Bm 2226   5.958   8.116  14.299 -0.2923  0.0810 -0.4845
   67mA      Am 2227   6.225   8.372  14.309 -0.2363 -0.3532  0.2738
   68mB      Bm 2228   6.297   8.726  14.246 -0.5204 -0.0868  0.8574
   69mC      Cm 2229   6.265   9.078  14.152  0.2490 -0.3147 -0.7131
   70mC      Cm 2230   6.065   9.431  14.127 -0.2971  0.1656  0.0228
   71mR      Rm 2231   6.246   9.287  13.886 -0.3638  1.1628 -0.0259
   72mB      Bm 2232   5.765   9.625  14.196  1.2900 -0.5183  0.4744
   73mA      Am 2233   5.410   9.734  14.216 -0.2181  0.0255 -0.3191
   74mB      Bm 2234   5.068   9.640  14.141  0.1021 -0.1593 -0.1531
   75mC      Cm 2235   4.773   9.444  14.032  0.4557 -0.6920  0.3564
   76mC      Cm 2236   4.535   9.115  14.002  0.1149  0.0564 -0.0330
   77mR      Rm 2237   4.618   9.335  13.762  0.2136  0.9195 -0.2364
   78mB      Bm 2238   4.466   8.751  14.053 -0.8617  0.0085 -0.3326
   79mA      Am 2239   4.539   8.375  14.040  1.0225  0.2194 -0.1979
   80mB      Bm 2240   4.773   8.113  13.929  0.2802  0.0503  0.9936
   81mC      Cm 2241   5.061   7.938  13.763 -0.2775  0.3500 -0.0570
   82mC      Cm 2242   5.463   7.919  13.665  0.1727  0.1822  1.0595
   83mR      Rm 2243   5.205   7.878  13.451 -0.6667  0.7257  0.4514
   84mB      Bm 2244   5.814   8.045  13.695 -1.3397 -1.1055 -0.6839
   85mA      Am 2245   6.103   8.272  13.711  0.2875  1.0312  0.0381
   86mB      Bm 2246   6.199   8.630  13.639  0.5774  0.2539 -0.6243
   87mC      Cm 2247   6.175   8.984  13.526 -1.4807  0.2850  0.1060
   88mC      Cm 2248   6.010   9.356  13.512  1.3895 -0.5078  0.5652
   89mR      Rm 2249   6.148   9.187  13.258 -0.3011  0.3310 -1.5949
   90mB      Bm 2250   5.742   9.602  13.606 -0.3424  0.0055  0.3866
   91mA      Am 2251   5.403   9.738  13.646  0.1464  0.0463 -0.6255
   92mB      Bm 2252   5.057   9.667  13.562 -0.5864  0.4425  0.1560
   93mC      Cm 2253   4.739   9.519  13.421  0.0835 -0.2023 -0.4816
   94mC      Cm 2254   4.485   9.205  13.373 -0.0336  0.0101  0.0231
   95mR      Rm 2255   4.574   9.443  13.144 -0.1184  0.2136  1.7058
   96mB      Bm 2256   4.396   8.841  13.411  0.5153  0.1354  0.2280
   97mA      Am 2257   4.448   8.472  13.380  0.5952 -0.3475 -0.0456
   98mB      Bm 2258   4.679   8.204  13.266 -0.4852  0.3415 -0.0604
   99mC      Cm 2259   4.968   8.008  13.136  0.5094  0.1928  0.2695
  100mC      Cm 2260   5.361   7.903  13.092 -1.0863 -0.8665  0.4081
  101mR      Rm 2261   5.134   7.945  12.848 -2.0238 -0.0066  0.8987
  102mB      Bm 2262   5.721   7.919  13.165  0.2236  0.0293 -0.0373
  103mA      Am 2263   6.066   8.019  13.217 -0.0756 -0.0206  0.0558
  104mB      Bm 2264   6.325   8.287  13.229  0.5872  0.5768  0.1254
  105mC      Cm 2265   6.516   8.609  13.217 -0.1971  0.6488 -0.3611
  106mC      Cm 2266   6.540   9.005  13.288  0.0000 -0.2173  0.1600
  107mR      Rm 2267   6.627   8.840  13.008  0.4012 -1.0310 -0.3260
  108tB      Bt 2268   6.606   9.309  13.488 -0.1009  0.0020 -0.4844
    1hA      Ah 2269   5.889   7.465  15.322 -0.2435  0.1935  0.1333
    2mB      Bm 2270   5.635   7.202  15.364 -0.4630 -0.0361 -0.0667
    3mC      Cm 2271   5.454   6.887  15.322  0.8444 -0.6361 -0.7125
    4mC      Cm 2272   5.444   6.486  15.250 -0.5941  0.1112  0.2422
    5mR      Rm 2273   5.253   6.718  15.103  1.0941  0.6529 -0.0869
    6mB      Bm 2274   5.579   6.141  15.211  0.3208  0.3327  0.0653
    7mA      Am 2275   5.792   5.865  15.092 -0.4631  0.2978 -0.3590
    8mB      Bm 2276   6.067   5.770  14.851  0.1553  0.2193 -0.8253
    9mC      Cm 2277   6.322   5.792  14.590  0.2518  0.0799  0.6918
   10mC      Cm 2278   6.645   5.948  14.379  0.2248 -0.8580  0.5180
   11mR      Rm 2279   6.340   5.849  14.258 -0.1760  1.0666  1.2916
   12mB      Bm 2280   6.908   6.202  14.323 -0.4764 -0.1792 -0.5039
   13mA      Am 2281   7.074   6.542  14.298  0.5037  0.1298  0.5128
   14mB      Bm 2282   7.045   6.911  14.283  0.4085  0.4471  0.1724
   15mC      Cm 2283   6.901   7.250  14.278 -0.6022  0.2119  0.2697
   16mC      Cm 2284   6.637   7.524  14.434 -0.0302  0.1059 -0.2519
   17mR      Rm 2285   6.728   7.475  14.109  0.7929 -0.0638  0.1815
   18mB      Bm 2286   6.340   7.614  14.642 -0.4627  0.5428  0.3812
   19mA      Am 2287   6.011   7.597  14.799  0.2692  0.1181  0.6369
   20mB      Bm 2288   5.701   7.400  14.842 -0.1515 -1.0396 -0.9300
   21mC      Cm 2289   5.448   7.146  14.805 -0.1673 -0.1435  0.3424
   22mC      Cm 2290   5.327   6.763  14.736 -0.8389 -0.6792 -1.1417
   23mR      Rm 2291   5.196   7.036  14.595 -0.6403 -0.2484  1.5092
   24mB      Bm 2292   5.387   6.395  14.688  0.4125 -0.4703  0.1993
   25mA      Am 2293   5.510   6.070  14.562 -0.0341 -0.1193  0.3861
   26mB      Bm 2294   5.730   5.871  14.328  0.1241 -0.0265  0.3524
   27mC      Cm 2295   5.963   5.795  14.057 -0.6028 -0.7712  0.8530
   28mC      Cm 2296   6.312   5.865  13.861  0.5919  0.3051  0.2642
   29mR      Rm 2297   6.002   5.789  13.730 -0.1658 -0.2191  0.0751
   30mB      Bm 2298   6.629   6.062  13.806 -0.4229  0.3790  0.0833
   31mA      Am 2299   6.855   6.346  13.758  0.4548  0.1382 -0.2482
   32mB      Bm 2300   6.859   6.714  13.733 -0.2883 -0.4746 -0.6490
   33mC      Cm 2301   6.742   7.072  13.711  0.7792 -0.5415  0.4170
   34mC      Cm 2302   6.500   7.375  13.835  0.4510 -0.0102 -0.0351
   35mR      Rm 2303   6.588   7.298  13.510  0.0186 -0.2663 -0.5621
   36mB      Bm 2304   6.233   7.523  14.028 -0.0153  0.2671 -0.4672
   37mA      Am 2305   5.904   7.584  14.209 -0.4601 -0.1984  0.1851
   38mB      Bm 2306   5.577   7.426  14.264 -0.4462  0.4403  0.1604
   39mC      Cm 2307   5.291   7.203  14.227  0.2907 -0.0261  0.2292
   40mC      Cm 2308   5.116   6.841  14.194 -0.1063  0.1694 -0.5252
   41mR      Rm 2309   5.026   7.126  14.042  0.3090 -0.2649  0.2698
   42mB      Bm 2310   5.108   6.467  14.200  0.1850  0.0870  0.5393
   43mA      Am 2311   5.197   6.123  14.083  0.1367 -0.0221 -0.4115
   44mB      Bm 2312   5.395   5.915  13.849 -0.2186  0.4302  0.3563
   45mC      Cm 2313   5.615   5.800  13.574 -0.7445  0.2036 -0.1409
   46mC      Cm 2314   5.966   5.828  13.356  0.8230 -0.4814 -0.1016
   47mR      Rm 2315   5.655   5.785  13.232 -0.8968 -0.7252 -0.4408
   48mB      Bm 2316   6.297   5.977  13.283  0.3424 -0.0325 -0.1658
   49mA      Am 2317   6.533   6.250  13.225  0.5116 -0.6817  0.2997
   50mB      Bm 2318   6.565   6.620  13.206 -0.1943  0.2181 -0.7115
   51mC      Cm 2319   6.483   6.975  13.185 -0.5769  1.2692  0.0060
   52mC      Cm 2320   6.263   7.308  13.286  0.3727 -0.4838  0.9322
   53mR      Rm 2321   6.370   7.220  12.979 -0.6843 -0.3960 -1.5060
   54mB      Bm 2322   5.985   7.482  13.459 -0.0305 -0.3370  0.4241
   55mA      Am 2323   5.660   7.547  13.603 -0.4941  0.7034  0.3250
   56mB      Bm 2324   5.322   7.429  13.668  1.6483  0.0805 -0.8998
   57mC      Cm 2325   5.021   7.215  13.653 -0.7319  0.5069  0.0570
   58mC      Cm 2326   4.833   6.852  13.656 -0.2541  0.6972  0.1061
   59mR      Rm 2327   4.773   7.112  13.440  1.4554 -0.4117  0.6911
   60mB      Bm 2328   4.809   6.477  13.643 -1.0562 -0.1736 -0.5123
   61mA      Am 2329   4.860   6.126  13.536  0.7711 -0.5001  0.0107
   62mB      Bm 2330   5.038   5.893  13.316 -0.5312 -0.2970 -0.0860
   63mC      Cm 2331   5.257   5.757  13.054  1.2026 -1.0181  0.0940
   64mC      Cm 2332   5.590   5.768  12.819  0.4611 -0.3178 -0.2612
   65mR      Rm 2333   5.278   5.710  12.717  0.4662 -0.4776  0.3765
   66mB      Bm 2334   5.916   5.908  12.735 -1.5031  0.1739 -0.0942
   67mA      Am 2335   6.193   6.142  12.659 -0.0331 -0.8882  0.3276
   68mB      Bm 2336   6.279   6.497  12.604  0.4419 -0.8482  0.2012
   69mC      Cm 2337   6.217   6.862  12.577 -0.6934 -0.9572 -0.0064
   70mC      Cm 2338   6.030   7.215  12.677 -0.5272  1.1573  0.0154
   71mR      Rm 2339   6.109   7.103  12.368  0.0041  0.6924 -0.8041
   72mB      Bm 2340   5.786   7.407  12.869  0.5315 -0.2283 -0.0333
   73mA      Am 2341   5.478   7.520  13.032 -0.0667  0.6445  0.2736
   74mB      Bm 2342   5.129   7.432  13.089 -0.5867 -0.8383 -0.4475
   75mC      Cm 2343   4.799   7.262  13.070  1.7573  0.8090 -0.1868
   76mC      Cm 2344   4.548   6.938  13.084 -0.3456 -0.0525 -0.1808
   77mR      Rm 2345   4.531   7.195  12.878  0.4971  0.0294  0.9731
   78mB      Bm 2346   4.487   6.573  13.099 -0.4757 -0.6157 -0.7420
   79mA      Am 2347   4.513   6.212  13.034  0.2276  0.1114  0.1531
   80mB      Bm 2348   4.662   5.934  12.834  0.6518 -0.7907  0.0319
   81mC      Cm 2349   4.874   5.755  12.584  0.9560 -0.7164 -0.5713
   82mC      Cm 2350   5.218   5.691  12.363  0.2596 -0.3256  0.6621
   83mR      Rm 2351   4.897   5.687  12.260 -1.6088 -0.4679  0.9825
   84mB      Bm 2352   5.575   5.757  12.259 -0.4989  0.6974  0.3549
   85mA      Am 2353   5.864   5.960  12.147 -0.3491 -0.4674 -0.4158
   86mB      Bm 2354   6.000   6.300  12.062  0.1722  0.0415  0.0136
   87mC      Cm 2355   5.981   6.673  11.999  0.7599 -0.0783  0.3339
   88mC      Cm 2356   5.865   7.055  12.075  0.2673  1.2027  0.0204
   89mR      Rm 2357   5.880   6.894  11.776  0.0559 -0.1822 -0.3305
   90mB      Bm 2358   5.666   7.307  12.261 -0.4668 -0.0109 -0.3688
   91mA      Am 2359   5.371   7.464  12.424 -0.0851 -0.4565 -0.4883
   92mB      Bm 2360   5.011   7.452  12.497  0.2357 -0.5405  0.6733
   93mC      Cm 2361   4.662   7.327  12.478  0.2377  0.4728 -0.4462
   94mC      Cm 2362   4.377   7.035  12.486  0.7084 -1.4942  0.7025
   95mR      Rm 2363   4.385   7.309  12.288 -1.3119  0.3798 -0.3959
   96mB      Bm 2364   4.271   6.674  12.507 -0.5743 -0.0815  0.2089
   97mA      Am 2365   4.247   6.314  12.446 -0.0819 -0.3601 -0.0021
   98mB      Bm 2366   4.356   6.019  12.252 -0.1032 -0.2460 -0.7770
   99mC      Cm 2367   4.524   5.799  12.006 -0.5325  1.1135  0.0254
  100mC      Cm 2368   4.854   5.621  11.840 -0.5518  0.5439  0.0669
  101mR      Rm 2369   4.577   5.736  11.681  0.9049 -0.4073  0.4938
  102mB      Bm 2370   5.215   5.553  11.782 -0.2877  0.5047  0.7735
  103mA      Am 2371   5.571   5.617  11.707  0.3491  0.3867 -0.6011
  104mB      Bm 2372   5.851   5.850  11.658 -0.0452 -0.6956  0.3567
  105mC      Cm 2373   6.063   6.151  11.638  0.0287 -0.5413 -0.6280
  106mC      Cm 2374   6.221   6.513  11.749 -0.3441  1.2289 -0.7394
  107mR      Rm 2375   6.137   6.429  11.437 -0.0058  1.2156 -0.4684
  108tB      Bt 2376   6.427   6.755  11.939 -0.0837  0.1875  0.2122
    1hA      Ah 2377   1.031   8.624  18.870  0.0190 -0.0117  0.2529
    2mB      Bm 2378   1.239   8.409  19.085 -0.0748 -0.4772  0.4123
    3mC      Cm 2379   1.377   8.215  19.373 -0.1100  0.7487  0.1899
    4mC      Cm 2380   1.364   7.965  19.699 -0.5915 -0.5346 -0.7439
    5mR      Rm 2381   1.535   8.253  19.673 -0.6274  0.0470  0.3350
    6mB      Bm 2382   1.219   7.726  19.938  0.0446 -0.3055 -0.6433
    7mA      Am 2383   0.983   7.603  20.214 -0.5949 -0.3238 -0.3988
    8mB      Bm 2384   0.689   7.673  20.422  0.4976 -0.0197 -0.1574
    9mC      Cm 2385   0.390   7.848  20.560  1.6140  0.5088  0.9332
   10mC      Cm 2386   0.042   8.069  20.533 -0.5161 -0.6414 -1.2561
   11mR      Rm 2387   0.296   8.101  20.765 -1.0948 -0.8109  1.0296
   12mB      Bm 2388  -0.228   8.251  20.347  0.0799  0.1490 -0.0737
   13mA      Am 2389  -0.397   8.483  20.118  0.5863 -0.3925  0.1162
   14mB      Bm 2390  -0.344   8.757  19.876 -0.2465  0.1706 -0.4710
   15mC      Cm 2391  -0.195   9.016  19.670  0.6765 -0.3849 -0.4985
   16mC      Cm 2392   0.100   9.162  19.422 -0.2563  0.4914  0.4748
   17mR      Rm 2393  -0.041   9.320  19.694 -0.1091 -0.7835 -0.2468
   18mB      Bm 2394   0.414   9.125  19.226  0.3468  0.2644  0.0907
   19mA      Am 2395   0.773   9.055  19.149  0.8993  0.0956 -0.0261
   20mB      Bm 2396   1.103   8.966  19.302 -0.1223 -0.4024 -0.1062
   21mC      Cm 2397   1.344   8.864  19.560 -0.1116 -0.4556  0.1151
   22mC      Cm 2398   1.465   8.635  19.871 -0.3592 -0.9656 -0.3982
   23mR      Rm 2399   1.520   8.973  19.831 -0.6293 -0.0912  0.6264
   24mB      Bm 2400   1.405   8.386  20.138 -0.2632  0.4307  0.1682
   25mA      Am 2401   1.266   8.197  20.427  0.2487 -0.0544  0.3606
   26mB      Bm 2402   1.002   8.193  20.687 -0.5750  0.0556 -0.1241
   27mC      Cm 2403   0.709   8.278  20.900 -1.3466  0.3455  0.5216
   28mC      Cm 2404   0.340   8.438  20.923  0.8220 -0.5792 -0.0825
   29mR      Rm 2405   0.610   8.518  21.106  0.9044 -0.4290  0.4531
   30mB      Bm 2406   0.046   8.610  20.777  0.0649  0.1554 -0.0809
   31mA      Am 2407  -0.156   8.850  20.574 -0.0493 -0.8809 -0.4157
   32mB      Bm 2408  -0.166   9.146  20.339  0.1052 -0.0584 -0.7777
   33mC      Cm 2409  -0.058   9.429  20.130  0.0499  0.5676 -1.0955
   34mC      Cm 2410   0.178   9.628  19.875 -1.0378  0.4394 -1.0461
   35mR      Rm 2411   0.050   9.755  20.153  0.5323  0.4442 -0.2050
   36mB      Bm 2412   0.476   9.657  19.653  0.7244  0.2840 -0.2757
   37mA      Am 2413   0.824   9.643  19.534 -0.7655  0.3311 -0.2898
   38mB      Bm 2414   1.178   9.556  19.639 -0.2856 -1.1046 -0.4543
   39mC      Cm 2415   1.455   9.456  19.854 -0.2095 -0.4719 -1.3986
   40mC      Cm 2416   1.649   9.220  20.137  0.5050  0.0351 -0.3356
   41mR      Rm 2417   1.639   9.552  20.117 -0.4275 -0.5753  0.7689
   42mB      Bm 2418   1.651   8.942  20.392 -0.5859  0.3415  0.2301
   43mA      Am 2419   1.543   8.738  20.683  0.1521  0.3937  0.2787
   44mB      Bm 2420   1.328   8.697  20.982 -0.3007  0.5909 -0.4925
   45mC      Cm 2421   1.058   8.752  21.226 -0.4073  0.6814 -0.1669
   46mC      Cm 2422   0.679   8.874  21.319 -0.9003  0.4100 -0.6764
   47mR      Rm 2423   0.964   8.950  21.476  0.5576 -0.3312  1.5312
   48mB      Bm 2424   0.354   9.005  21.213  0.0761  0.0114 -0.5157
   49mA      Am 2425   0.101   9.211  21.036 -0.0898 -0.1518 -1.0448
   50mB      Bm 2426   0.058   9.504  20.812  0.0013 -0.4865  0.5370
   51mC      Cm 2427   0.138   9.797  20.600 -0.0932  0.6412 -0.0564
   52mC      Cm 2428   0.336  10.008  20.309  0.1589 -0.2503 -0.4616
   53mR      Rm 2429   0.225  10.121  20.603  0.3232  0.2443 -0.0276
   54mB      Bm 2430   0.597  10.053  20.049 -0.3713  0.1831 -0.3218
   55mA      Am 2431   0.926  10.054  19.901  0.0283 -0.1183  0.2780
   56mB      Bm 2432   1.278   9.973  19.981 -0.3288 -0.0510 -0.0958
   57mC      Cm 2433   1.580   9.885  20.179  0.4002  0.1749 -0.2409
   58mC      Cm 2434   1.779   9.662  20.460  0.6739 -0.7093  0.1516
   59mR      Rm 2435   1.791   9.996  20.413 -0.4714  0.2032 -1.2160
   60mB      Bm 2436   1.807   9.386  20.711  0.1134  0.1271 -0.2115
   61mA      Am 2437   1.755   9.159  21.001  0.6963  0.1394 -0.1998
   62mB      Bm 2438   1.549   9.096  21.294  1.0855  0.0546  0.0716
   63mC      Cm 2439   1.284   9.149  21.542  0.8460 -0.4877 -0.6537
   64mC      Cm 2440   0.919   9.274  21.668  0.4669 -0.0299 -0.2845
   65mR      Rm 2441   1.212   9.351  21.807 -0.1876 -0.0172  0.0197
   66mB      Bm 2442   0.575   9.391  21.610  0.2449  0.2952 -0.3573
   67mA      Am 2443   0.301   9.591  21.486 -0.6751  0.3060  0.5327
   68mB      Bm 2444   0.214   9.893  21.294 -0.4077  0.0064  0.2905
   69mC      Cm 2445   0.235  10.214  21.101 -0.2948 -0.7191  0.7461
   70mC      Cm 2446   0.381  10.443  20.796  0.1180  0.2156 -0.2568
   71mR      Rm 2447   0.301  10.548  21.112  0.4539  0.4500 -0.9130
   72mB      Bm 2448   0.602  10.501  20.494 -0.1414 -0.6091  0.2928
   73mA      Am 2449   0.915  10.521  20.294 -0.0265 -0.0950 -0.2504
   74mB      Bm 2450   1.279  10.491  20.308 -0.9881 -0.0010  0.0518
   75mC      Cm 2451   1.617  10.439  20.450 -0.9524 -0.1220 -1.1970
   76mC      Cm 2452   1.868  10.222  20.702 -0.6311 -0.5830  0.4066
   77mR      Rm 2453   1.854  10.555  20.681  0.8866  0.4494 -0.0551
   78mB      Bm 2454   1.952   9.930  20.922  0.6689  0.2825  0.1155
   79mA      Am 2455   1.929   9.694  21.204  0.1341 -0.2605 -0.6797
   80mB      Bm 2456   1.785   9.591  21.525 -0.7806  0.7944  0.1793
   81mC      Cm 2457   1.577   9.614  21.822 -0.6559 -0.2949 -1.1409
   82mC      Cm 2458   1.218   9.700  22.020 -0.2741  0.3158  1.1873
   83mR      Rm 2459   1.529   9.780  22.114 -0.5674  1.2800  1.9766
   84mB      Bm 2460   0.866   9.817  22.004  0.0680 -0.4281 -0.0197
   85mA      Am 2461   0.570  10.019  21.930  0.0719 -0.5140  0.5258
   86mB      Bm 2462   0.422  10.310  21.758 -0.0017 -0.5778  0.0830
   87mC      Cm 2463   0.384  10.622  21.569  0.5668 -0.1978 -0.5908
   88mC      Cm 2464   0.482  10.891  21.275 -0.3270  0.3901 -0.0412
   89mR      Rm 2465   0.402  10.964  21.598 -0.8534 -0.3620 -0.0810
   90mB      Bm 2466   0.674  10.989  20.972  0.3362 -0.5625 -0.2341
   91mA      Am 2467   0.968  11.058  20.757 -0.1477  0.1140 -0.0835
   92mB      Bm 2468   1.336  11.036  20.736  0.6889  0.5133  0.3773
   93mC      Cm 2469   1.697  10.968  20.825 -1.0678  0.5305  0.1028
   94mC      Cm 2470   1.995  10.741  20.986 -0.2822 -0.6867 -0.9335
   95mR      Rm 2471   1.952  11.070  21.019 -0.8599  0.2638 -1.7436
   96mB      Bm 2472   2.131  10.455  21.169  0.0170 -0.1549 -0.0961
   97mA      Am 2473   2.161  10.191  21.432 -0.1756 -0.6590 -0.4954
   98mB      Bm 2474   2.036  10.077  21.755  0.0832  0.0814  0.1350
   99mC      Cm 2475   1.863  10.071  22.093  0.0899 -0.4090  0.0219
  100mC      Cm 2476   1.546  10.141  22.343  0.2456 -0.6715 -0.4719
  101mR      Rm 2477   1.866  10.226  22.393 -0.0733  0.4121 -0.8482
  102mB      Bm 2478   1.188  10.256  22.402 -0.3592  0.4812  0.2175
  103mA      Am 2479   0.877  10.463  22.377  0.8460  0.5841  0.1052
  104mB      Bm 2480   0.694  10.759  22.247 -0.0040 -0.3075  0.1190
  105mC      Cm 2481   0.623  11.081  22.070  0.1569  1.1002 -1.3791
  106mC      Cm 2482   0.673  11.332  21.751 -0.2417 -0.1296  0.6788
  107mR      Rm 2483   0.664  11.419  22.077 -0.6485 -0.5771  0.3302
  108tB      Bt 2484   0.781  11.419  21.413  0.3346 -0.1327  0.9648
    1hA      Ah 2485   4.282   4.274  12.149  0.1942  0.0088 -0.4750
    2mB      Bm 2486   4.147   4.153  12.465 -1.2183  0.7101 -0.0851
    3mC      Cm 2487   4.142   4.010  12.806  0.1663 -0.1378 -0.5757
    4mC      Cm 2488   4.270   3.959  13.194 -0.2323  0.0323 -0.1898
    5mR      Rm 2489   4.163   3.720  12.978 -0.0186 -1.3053  1.5038
    6mB      Bm 2490   4.492   4.027  13.480  1.2017  0.1776  0.8580
    7mA      Am 2491   4.796   4.070  13.679 -0.5442 -0.1202 -0.4569
    8mB      Bm 2492   5.165   4.078  13.670  0.1530  0.4228 -1.1607
    9mC      Cm 2493   5.525   4.054  13.541 -0.2578 -0.7951  0.6495
   10mC      Cm 2494   5.836   4.149  13.295 -0.8732 -0.2844  0.0842
   11mR      Rm 2495   5.748   3.842  13.410 -0.5791 -0.1275  0.2585
   12mB      Bm 2496   5.999   4.311  12.998  0.0393 -0.3371 -0.2576
   13mA      Am 2497   6.050   4.423  12.651  0.7185  0.3718 -1.0017
   14mB      Bm 2498   5.918   4.421  12.302 -0.2558  1.5531 -0.2227
   15mC      Cm 2499   5.728   4.345  11.997  0.0108 -0.1134  0.5700
   16mC      Cm 2500   5.391   4.255  11.794  0.2905 -0.4280 -0.4079
   17mR      Rm 2501   5.687   4.105  11.751 -0.9193  0.4690  0.7077
   18mB      Bm 2502   5.025   4.188  11.779  0.0145  0.1095  0.1607
   19mA      Am 2503   4.693   4.054  11.876  0.1925 -0.2637 -0.2962
   20mB      Bm 2504   4.496   3.849  12.111  0.3314  0.1360 -0.9424
   21mC      Cm 2505   4.385   3.617  12.382  1.8155  0.0871  0.1665
   22mC      Cm 2506   4.413   3.472  12.760  0.3842 -0.2043 -0.1005
   23mR      Rm 2507   4.387   3.291  12.474  1.0523 -0.3053  0.6490
   24mB      Bm 2508   4.575   3.465  13.094  0.3123  0.5108  0.5717
   25mA      Am 2509   4.846   3.471  13.345  0.4491  0.0104 -0.4460
   26mB      Bm 2510   5.198   3.486  13.413 -0.1778  0.2350 -0.0203
   27mC      Cm 2511   5.561   3.486  13.370 -1.3426  0.3407 -0.4046
   28mC      Cm 2512   5.908   3.585  13.181  0.2414 -0.3499  0.0368
   29mR      Rm 2513   5.812   3.275  13.298  0.6631  0.1684  0.9086
   30mB      Bm 2514   6.111   3.768  12.937 -0.2018 -0.6283  0.1917
   31mA      Am 2515   6.228   3.888  12.613  0.4586  0.1037  0.2180
   32mB      Bm 2516   6.182   3.885  12.251 -0.4262  0.1955  0.1615
   33mC      Cm 2517   6.044   3.793  11.917  0.6892 -0.7825  0.2218
   34mC      Cm 2518   5.728   3.704  11.677  0.1996  0.5870 -0.7717
   35mR      Rm 2519   6.020   3.542  11.692  0.4075 -0.6895 -1.5494
   36mB      Bm 2520   5.368   3.658  11.595 -0.1169  0.1651 -0.2321
   37mA      Am 2521   5.016   3.547  11.639 -0.6906  0.0135 -0.1426
   38mB      Bm 2522   4.779   3.343  11.829  0.1910  0.1925 -0.4327
   39mC      Cm 2523   4.639   3.105  12.082  0.1269 -0.5967 -0.4832
   40mC      Cm 2524   4.629   2.973  12.463  0.0386  0.3776  0.1514
   41mR      Rm 2525   4.659   2.785  12.190 -1.2333  0.1876  0.8978
   42mB      Bm 2526   4.712   2.983  12.833  0.3263 -0.3063  0.4733
   43mA      Am 2527   4.924   2.973  13.140 -0.7349  0.4494  0.0637
   44mB      Bm 2528   5.279   2.953  13.272  0.2864  0.5998 -0.8306
   45mC      Cm 2529   5.639   2.914  13.282  0.8160  0.7042 -0.5585
   46mC      Cm 2530   6.014   2.998  13.141  1.1089  1.4014  0.0544
   47mR      Rm 2531   5.896   2.693  13.211  0.0167 -1.3803  0.7599
   48mB      Bm 2532   6.251   3.174  12.916 -0.7276 -0.4657 -0.5161
   49mA      Am 2533   6.402   3.309  12.617  0.1321  0.1120  0.7154
   50mB      Bm 2534   6.385   3.323  12.239  0.1128 -0.3966 -0.0376
   51mC      Cm 2535   6.296   3.253  11.889 -0.0739  1.5288  0.1309
   52mC      Cm 2536   6.000   3.191  11.607  0.5642 -0.0881  0.2249
   53mR      Rm 2537   6.296   3.031  11.637  0.5436 -0.6971 -0.2183
   54mB      Bm 2538   5.648   3.159  11.497 -0.5976  0.0561 -0.1718
   55mA      Am 2539   5.290   3.057  11.476 -0.2033 -0.3338  0.0303
   56mB      Bm 2540   5.033   2.849  11.627 -0.0868  0.0745 -0.0702
   57mC      Cm 2541   4.854   2.603  11.843  0.1704  0.2951 -0.2242
   58mC      Cm 2542   4.762   2.431  12.201 -0.4929 -0.2125  0.1449
   59mR      Rm 2543   4.822   2.272  11.913  0.7210 -0.1091 -0.8143
   60mB      Bm 2544   4.796   2.403  12.574  1.0028  0.3764 -0.4659
   61mA      Am 2545   4.960   2.363  12.908 -0.6833  0.3953  0.3235
   62mB      Bm 2546   5.282   2.317  13.079  0.7930  0.8272  0.1126
   63mC      Cm 2547   5.647   2.291  13.113  0.2482 -0.7314  0.3441
   64mC      Cm 2548   6.037   2.398  13.042 -0.3689 -0.0948 -0.4266
   65mR      Rm 2549   5.913   2.090  13.085  0.3788 -0.4272 -0.2041
   66mB      Bm 2550   6.290   2.588  12.852 -0.6307  0.4934 -0.2402
   67mA      Am 2551   6.496   2.734  12.590  0.1694  0.4254  0.8503
   68mB      Bm 2552   6.560   2.760  12.230  0.3058 -0.3974  0.7672
   69mC      Cm 2553   6.526   2.703  11.862  0.0563  0.8663 -0.7965
   70mC      Cm 2554   6.305   2.641  11.520 -0.1088  0.2904 -0.6094
   71mR      Rm 2555   6.578   2.474  11.619 -0.7504 -1.0029 -1.0339
   72mB      Bm 2556   5.989   2.611  11.323  0.2828  0.2522  0.0892
   73mA      Am 2557   5.646   2.490  11.252  0.7413 -0.1344  0.1626
   74mB      Bm 2558   5.357   2.301  11.385 -0.4226  0.2358 -0.2180
   75mC      Cm 2559   5.162   2.068  11.601 -0.7996 -0.8415  0.1419
   76mC      Cm 2560   5.026   1.917  11.958  0.9822 -0.8526  0.5529
   77mR      Rm 2561   5.112   1.744  11.687  0.5191  0.9089  0.0399
   78mB      Bm 2562   5.008   1.887  12.326  0.3624  0.1154  0.8375
   79mA      Am 2563   5.112   1.854  12.673 -0.5307  0.6110  0.0873
   80mB      Bm 2564   5.395   1.821  12.903 -0.1391  0.1301  0.1051
   81mC      Cm 2565   5.746   1.767  13.011  0.2926 -0.3700  0.4113
   82mC      Cm 2566   6.144   1.823  12.996  0.0138  0.2906  0.0199
   83mR      Rm 2567   5.990   1.532  13.008  0.2892  0.5878 -0.1451
   84mB      Bm 2568   6.443   1.996  12.879  0.8025  0.5095 -0.0614
   85mA      Am 2569   6.703   2.139  12.654 -0.4383 -0.8088  1.5725
   86mB      Bm 2570   6.782   2.154  12.289  0.4977  0.5482  0.1746
   87mC      Cm 2571   6.774   2.113  11.918 -1.0163  0.0705 -1.1532
   88mC      Cm 2572   6.593   2.093  11.556 -0.9526  0.2708  0.9152
   89mR      Rm 2573   6.824   1.878  11.677  0.4221 -1.9357  0.9183
   90mB      Bm 2574   6.291   2.095  11.330  0.0520 -0.4147 -0.3006
   91mA      Am 2575   5.952   2.029  11.192  0.0226  0.2137  0.4616
   92mB      Bm 2576   5.657   1.813  11.228  0.3172  0.1667  0.5460
   93mC      Cm 2577   5.432   1.556  11.367  0.2407  0.1960 -0.5909
   94mC      Cm 2578   5.235   1.381  11.685 -0.3521 -0.6330  0.7262
   95mR      Rm 2579   5.387   1.224  11.426 -0.4276 -0.2586  0.2607
   96mB      Bm 2580   5.157   1.331  12.048  0.3168 -0.5552  0.3949
   97mA      Am 2581   5.227   1.299  12.416  0.1447  0.3129 -0.6424
   98mB      Bm 2582   5.488   1.278  12.674 -0.3438 -0.6035 -0.3591
   99mC      Cm 2583   5.826   1.243  12.804 -0.5670 -0.0292  0.5776
  100mC      Cm 2584   6.226   1.317  12.830 -0.0678  0.6814  0.1456
  101mR      Rm 2585   6.080   1.018  12.827 -0.1905  0.6069 -0.4666
  102mB      Bm 2586   6.547   1.474  12.736 -0.3880 -0.5258  0.0779
  103mA      Am 2587   6.825   1.600  12.526  0.3026  1.0479  0.1038
  104mB      Bm 2588   6.956   1.625  12.187  0.1392  0.0201 -0.5092
  105mC      Cm 2589   6.981   1.569  11.816 -0.7879 -0.1742  0.3067
  106mC      Cm 2590   6.826   1.561  11.442 -0.4095  0.7342 -0.0767
  107mR      Rm 2591   7.028   1.334  11.579 -0.0876 -0.0095 -1.1927
  108tB      Bt 2592   6.724   1.707  11.114 -0.4214  0.1808  0.3475
    1hA      Ah 2593   6.915   2.665  23.459 -0.2075  0.0183 -0.6739
    2mB      Bm 2594   6.663   2.525  23.239 -0.1986  0.5704  0.4312
    3mC      Cm 2595   6.477   2.329  22.980  0.5432 -0.5036  0.2120
    4mC      Cm 2596   6.383   1.983  22.784 -0.4661  0.9547 -0.3175
    5mR      Rm 2597   6.474   2.282  22.640 -1.0132  0.4651 -0.3900
    6mB      Bm 2598   6.421   1.608  22.747  0.7366 -0.1928  0.4535
    7mA      Am 2599   6.562   1.266  22.725  0.1644 -0.0488 -0.4776
    8mB      Bm 2600   6.878   1.073  22.759  1.0843  0.4007 -0.3058
    9mC      Cm 2601   7.233   0.996  22.821  0.7566  0.5955  0.0768
   10mC      Cm 2602   7.600   1.006  22.994  0.1730 -0.3754 -0.1589
   11mR      Rm 2603   7.535   0.979  22.671  0.2558  0.8634 -1.8718
   12mB      Bm 2604   7.836   1.146  23.243  0.1580 -0.1318  0.3375
   13mA      Am 2605   8.041   1.392  23.438 -0.7269 -0.6992 -0.3377
   14mB      Bm 2606   8.120   1.747  23.483  0.2450  0.0550  0.1856
   15mC      Cm 2607   8.102   2.112  23.434  0.6316 -0.5743  0.6593
   16mC      Cm 2608   7.925   2.477  23.371 -0.2167 -0.7216  1.1266
   17mR      Rm 2609   8.192   2.354  23.215  0.9423  1.0875 -1.2729
   18mB      Bm 2610   7.646   2.707  23.289 -0.8092  0.3328 -0.6455
   19mA      Am 2611   7.341   2.838  23.115 -0.4611 -0.0861  0.3125
   20mB      Bm 2612   7.079   2.815  22.856 -0.0573 -0.5122 -0.5900
   21mC      Cm 2613   6.888   2.682  22.566  0.9183 -0.1220 -0.8467
   22mC      Cm 2614   6.728   2.392  22.332 -0.9131 -0.3123  0.5225
   23mR      Rm 2615   6.885   2.664  22.227  0.7192  1.0546 -0.5600
   24mB      Bm 2616   6.670   2.035  22.248  0.3026 -0.2576  0.4625
   25mA      Am 2617   6.729   1.673  22.186  0.9830  0.2034 -0.6423
   26mB      Bm 2618   7.001   1.429  22.176  0.1963 -0.4358  0.3572
   27mC      Cm 2619   7.341   1.269  22.181 -1.2213  0.3879  0.1681
   28mC      Cm 2620   7.719   1.192  22.321  0.5359 -0.1030  0.6607
   29mR      Rm 2621   7.628   1.257  22.009  0.8168  0.0210 -0.0763
   30mB      Bm 2622   7.990   1.253  22.573  0.1718 -0.0858 -0.7131
   31mA      Am 2623   8.236   1.406  22.801 -0.1767  1.0482  0.5409
   32mB      Bm 2624   8.384   1.719  22.917 -0.4192  0.4300 -0.0361
   33mC      Cm 2625   8.459   2.082  22.940  2.3195 -0.8020 -1.0487
   34mC      Cm 2626   8.360   2.477  22.937 -0.3068  0.2503  0.1659
   35mR      Rm 2627   8.620   2.334  22.773  0.4259 -1.3545  1.0337
   36mB      Bm 2628   8.120   2.766  22.898 -0.2622 -0.0294 -0.7682
   37mA      Am 2629   7.848   2.959  22.752 -0.0403  0.7911  0.3955
   38mB      Bm 2630   7.566   2.998  22.508 -0.4833  0.3951  0.2108
   39mC      Cm 2631   7.343   2.934  22.214  1.0838  1.1314 -0.1965
   40mC      Cm 2632   7.134   2.700  21.960 -0.9371 -1.0626  0.0219
   41mR      Rm 2633   7.331   2.958  21.877 -0.2163 -0.1995 -0.1733
   42mB      Bm 2634   7.039   2.355  21.839  0.5444  0.3338 -0.3171
   43mA      Am 2635   7.049   2.001  21.737 -0.6415  0.4844 -0.2450
   44mB      Bm 2636   7.286   1.721  21.699  0.1078  0.2357 -0.4810
   45mC      Cm 2637   7.596   1.511  21.692 -1.2541 -0.9867  0.0353
   46mC      Cm 2638   7.972   1.384  21.815  0.3494  0.2699 -0.3931
   47mR      Rm 2639   7.876   1.484  21.504  0.7017 -0.4045 -0.1357
   48mB      Bm 2640   8.251   1.391  22.052  0.8794  0.4367 -0.3334
   49mA      Am 2641   8.516   1.505  22.280  0.2646 -0.3644 -0.0898
   50mB      Bm 2642   8.693   1.815  22.393  0.0954 -0.3035  0.6062
   51mC      Cm 2643   8.800   2.173  22.425  0.6208  0.1219 -1.3878
   52mC      Cm 2644   8.736   2.578  22.419  0.1572 -0.7924  0.3139
   53mR      Rm 2645   8.967   2.399  22.255  1.5560 -0.7470  0.6989
   54mB      Bm 2646   8.510   2.861  22.406  0.4720 -0.1155 -0.0569
   55mA      Am 2647   8.225   3.069  22.296 -0.2817  0.6457  0.3928
   56mB      Bm 2648   7.955   3.139  22.068 -0.2128  0.2621  0.1022
   57mC      Cm 2649   7.725   3.111  21.779  0.5102  0.4000  0.7992
   58mC      Cm 2650   7.481   2.911  21.518 -1.1411  0.3496  0.2720
   59mR      Rm 2651   7.695   3.161  21.447  0.1150  0.7324  0.2729
   60mB      Bm 2652   7.352   2.580  21.387  0.3718 -0.2621  0.0315
   61mA      Am 2653   7.360   2.233  21.278 -0.9871 -0.0043 -0.4675
   62mB      Bm 2654   7.554   1.936  21.223 -0.0766 -0.4536 -0.0841
   63mC      Cm 2655   7.847   1.697  21.182 -0.1093 -0.7478  0.2414
   64mC      Cm 2656   8.189   1.511  21.290  0.3846 -0.2117  0.7309
   65mR      Rm 2657   8.106   1.620  20.984 -1.1080  0.0469 -1.6013
   66mB      Bm 2658   8.478   1.494  21.521  0.0500 -0.2918  0.1643
   67mA      Am 2659   8.762   1.602  21.735 -0.0867  0.4603 -0.8332
   68mB      Bm 2660   8.952   1.901  21.843 -0.5955 -0.6847  0.0037
   69mC      Cm 2661   9.064   2.256  21.873  0.2657 -0.9205  0.1377
   70mC      Cm 2662   9.017   2.653  21.929  0.1310 -0.0731  0.2733
   71mR      Rm 2663   9.245   2.503  21.735  0.5377  0.3154 -0.2235
   72mB      Bm 2664   8.804   2.961  21.960 -0.0322  0.7955  0.2589
   73mA      Am 2665   8.533   3.216  21.900 -0.5184  0.3745 -1.1528
   74mB      Bm 2666   8.279   3.300  21.649  0.0898  0.2622  0.1916
   75mC      Cm 2667   8.059   3.294  21.345  0.1063 -1.4969 -0.3150
   76mC      Cm 2668   7.821   3.129  21.062 -0.6254  0.0157 -0.3305
   77mR      Rm 2669   8.060   3.362  21.009  1.7426  1.3500  0.2560
   78mB      Bm 2670   7.636   2.842  20.913  0.2547 -0.1289  0.5752
   79mA      Am 2671   7.576   2.521  20.753  0.1434 -0.2765 -0.7441
   80mB      Bm 2672   7.746   2.205  20.658  0.2507 -0.0727  0.1906
   81mC      Cm 2673   8.020   1.951  20.598  0.4301 -0.2603  0.0754
   82mC      Cm 2674   8.338   1.708  20.678 -0.8509  0.0607 -1.1488
   83mR      Rm 2675   8.276   1.873  20.392  0.1364  0.2895  0.2114
   84mB      Bm 2676   8.620   1.606  20.899  0.3574  0.6745 -0.2573
   85mA      Am 2677   8.910   1.666  21.129 -0.0844 -0.7732  1.1493
   86mB      Bm 2678   9.148   1.923  21.263 -0.1826  0.6743  0.1621
   87mC      Cm 2679   9.322   2.248  21.321  0.1590 -0.6421  0.2155
   88mC      Cm 2680   9.332   2.650  21.393  0.0367 -0.6336  0.1122
   89mR      Rm 2681   9.524   2.475  21.169 -1.6593 -0.9566 -0.4853
   90mB      Bm 2682   9.176   2.992  21.428 -0.3710 -0.5932  0.7414
   91mA      Am 2683   8.980   3.289  21.383  0.0603  0.4628  0.5254
   92mB      Bm 2684   8.728   3.467  21.167 -0.0810  0.4188 -0.5416
   93mC      Cm 2685   8.489   3.531  20.892 -0.1280  0.3583  0.4569
   94mC      Cm 2686   8.201   3.432  20.619  0.3810 -0.2370 -0.5169
   95mR      Rm 2687   8.471   3.622  20.566  1.0074 -0.2089  0.1951
   96mB      Bm 2688   7.998   3.179  20.440 -0.2350  0.6530 -0.0725
   97mA      Am 2689   7.890   2.878  20.257  0.4481  0.0192 -0.1113
   98mB      Bm 2690   7.992   2.539  20.120  0.5374 -0.6801 -1.0696
   99mC      Cm 2691   8.209   2.247  20.041 -0.0237  1.2526  1.8254
  100mC      Cm 2692   8.524   2.003  20.134  0.1748 -0.6518  0.5760
  101mR      Rm 2693   8.461   2.157  19.838 -0.7029 -0.5800 -0.3773
  102mB      Bm 2694   8.803   1.887  20.346  0.6168  0.1796  0.0955
  103mA      Am 2695   9.106   1.860  20.564 -0.2485  0.3208  0.2903
  104mB      Bm 2696   9.383   2.036  20.725  0.1251  0.2425  0.0034
  105mC      Cm 2697   9.614   2.318  20.794  0.7220  1.8915  0.8977
  106mC      Cm 2698   9.729   2.694  20.890  0.3926 -0.7792 -0.0041
  107mR      Rm 2699   9.862   2.495  20.651 -0.7241 -0.3532 -0.9010
  108tB      Bt 2700   9.791   2.964  21.141 -0.3573 -0.7405  0.2789
    1hA      Ah 2701   1.767   8.493  21.865 -1.0632 -0.2965  0.0068
    2mB      Bm 2702   2.018   8.615  21.614  0.7156  0.7190  0.0874
    3mC      Cm 2703   2.265   8.644  21.344  0.4357 -0.2024 -1.8156
    4mC      Cm 2704   2.393   8.575  20.960 -0.3786  0.0877  0.8054
    5mR      Rm 2705   2.574   8.564  21.244 -0.4573  0.4818  0.2876
    6mB      Bm 2706   2.375   8.428  20.619  0.8128  0.0749 -0.3899
    7mA      Am 2707   2.318   8.190  20.338 -0.6792  0.1157 -0.2603
    8mB      Bm 2708   2.232   7.849  20.232  0.2218 -0.6340  0.4872
    9mC      Cm 2709   2.139   7.490  20.215  0.0414 -0.0534  0.1947
   10mC      Cm 2710   1.909   7.168  20.315  0.8344  0.1249  0.5650
   11mR      Rm 2711   2.248   7.186  20.311  0.8320  0.0803 -0.3991
   12mB      Bm 2712   1.613   6.994  20.451  0.2501 -0.0269 -0.5085
   13mA      Am 2713   1.372   6.864  20.698  0.1318 -0.2884  0.3995
   14mB      Bm 2714   1.271   6.840  21.048 -0.1970 -0.3625 -0.2843
   15mC      Cm 2715   1.263   6.885  21.417  0.1473 -0.2489 -0.2304
   16mC      Cm 2716   1.235   7.115  21.756 -0.3460  1.1444 -1.1908
   17mR      Rm 2717   1.412   6.823  21.716  0.3702 -0.3349  1.0010
   18mB      Bm 2718   1.245   7.438  21.955 -0.1597  0.3618  0.4172
   19mA      Am 2719   1.372   7.756  22.088 -0.2576 -0.4377  0.2505
   20mB      Bm 2720   1.659   7.995  22.132 -0.4744  0.3123 -0.3050
   21mC      Cm 2721   1.991   8.152  22.107  1.2965 -0.6077 -0.2354
   22mC      Cm 2722   2.325   8.267  21.905 -1.2372 -0.7264  0.5161
   23mR      Rm 2723   2.301   8.159  22.225 -0.0637  0.0746 -0.8710
   24mB      Bm 2724   2.562   8.257  21.619  0.0978  0.0528  0.1690
   25mA      Am 2725   2.756   8.094  21.351  0.0928 -0.1273  0.0107
   26mB      Bm 2726   2.831   7.779  21.182 -0.2107 -0.3014 -0.7828
   27mC      Cm 2727   2.835   7.413  21.110  0.6860 -0.5917  1.2942
   28mC      Cm 2728   2.637   7.059  21.071  0.5167  0.2166  0.5814
   29mR      Rm 2729   2.945   7.111  21.219  0.2767  1.8603  0.1183
   30mB      Bm 2730   2.346   6.824  21.097 -0.5642  0.0459 -0.3167
   31mA      Am 2731   2.059   6.640  21.240  0.3823  0.0502 -0.3693
   32mB      Bm 2732   1.855   6.592  21.543 -0.8304  0.2114  0.3420
   33mC      Cm 2733   1.721   6.612  21.889 -1.1670  0.0870  1.0471
   34mC      Cm 2734   1.619   6.799  22.234  0.2257 -0.9368 -0.7227
   35mR      Rm 2735   1.790   6.507  22.201  0.7209 -0.1188 -0.0391
   36mB      Bm 2736   1.570   7.097  22.430 -0.4899 -0.1371  0.0856
   37mA      Am 2737   1.634   7.419  22.601  0.2997  0.4850  1.1849
   38mB      Bm 2738   1.892   7.680  22.652  0.5455 -0.7021 -0.9915
   39mC      Cm 2739   2.223   7.852  22.642  0.3243  0.0658  1.4772
   40mC      Cm 2740   2.566   7.991  22.454 -0.4651 -0.1496  0.1302
   41mR      Rm 2741   2.540   7.850  22.763  0.2384 -0.1887  0.7002
   42mB      Bm 2742   2.796   8.015  22.183  0.4121  0.8644 -0.2984
   43mA      Am 2743   3.009   7.910  21.898 -0.3612  0.1377  0.1388
   44mB      Bm 2744   3.126   7.612  21.700  0.1484 -0.5913  0.0333
   45mC      Cm 2745   3.171   7.256  21.610  0.3456 -0.0938 -0.2367
   46mC      Cm 2746   3.056   6.873  21.537  0.1050  0.7716  0.4125
   47mR      Rm 2747   3.337   6.971  21.700 -0.4879  1.0571  0.1849
   48mB      Bm 2748   2.802   6.598  21.536  0.8622  1.2383 -0.3146
   49mA      Am 2749   2.534   6.375  21.639 -0.2433 -0.0547 -0.4748
   50mB      Bm 2750   2.301   6.289  21.915  0.0788 -0.6459 -0.4919
   51mC      Cm 2751   2.130   6.288  22.249 -0.4219  0.5227 -0.3510
   52mC      Cm 2752   1.981   6.458  22.591 -0.6841 -0.1092 -0.6164
   53mR      Rm 2753   2.183   6.188  22.569  0.1937  0.1538 -0.7063
   54mB      Bm 2754   1.914   6.752  22.813  0.4690 -1.1773  0.4288
   55mA      Am 2755   1.964   7.077  22.990  0.2099  0.3650 -0.4000
   56mB      Bm 2756   2.205   7.347  23.069 -0.6345 -0.1692  0.3143
   57mC      Cm 2757   2.509   7.554  23.081  0.3692  1.3058 -0.3417
   58mC      Cm 2758   2.866   7.673  22.920  0.1179 -0.4886  0.5616
   59mR      Rm 2759   2.814   7.548  23.224  1.4383 -0.0118  0.3191
   60mB      Bm 2760   3.123   7.713  22.643 -0.2152 -0.3371  0.2504
   61mA      Am 2761   3.350   7.618  22.374  0.0804 -0.1079  0.3069
   62mB      Bm 2762   3.478   7.347  22.158  0.0334  0.5355 -0.5003
   63mC      Cm 2763   3.557   7.021  22.009  1.0368  0.0878  0.9967
   64mC      Cm 2764   3.449   6.645  21.886  0.1548  0.2385 -0.0397
   65mR      Rm 2765   3.739   6.733  22.038  1.0771  0.7137  0.0319
   66mB      Bm 2766   3.217   6.362  21.852  0.2263 -0.6214 -0.6263
   67mA      Am 2767   2.958   6.112  21.940 -1.0102 -0.0153  0.1103
   68mB      Bm 2768   2.748   5.992  22.216  0.0883  0.0613  0.4564
   69mC      Cm 2769   2.590   5.975  22.557 -0.0976 -0.7751 -0.3650
   70mC      Cm 2770   2.426   6.124  22.904 -0.2985  0.4319  0.6550
   71mR      Rm 2771   2.651   5.873  22.877  0.5637 -0.5707 -0.4370
   72mB      Bm 2772   2.308   6.411  23.108 -0.4517  0.2209  0.1742
   73mA      Am 2773   2.299   6.723  23.304 -0.3268 -0.1704 -0.3555
   74mB      Bm 2774   2.505   7.003  23.425 -1.0801 -1.2216  0.1642
   75mC      Cm 2775   2.806   7.218  23.478  0.9613  1.5441  0.2415
   76mC      Cm 2776   3.159   7.379  23.358 -0.0526 -0.0912  0.2355
   77mR      Rm 2777   3.094   7.224  23.658  0.3025 -0.1677  0.2021
   78mB      Bm 2778   3.443   7.445  23.118  0.3955  0.2881  0.0979
   79mA      Am 2779   3.691   7.390  22.852  0.1267 -0.5083  0.2342
   80mB      Bm 2780   3.843   7.153  22.619  0.4220 -0.2257 -0.0706
   81mC      Cm 2781   3.930   6.832  22.447  1.4536  0.6495 -0.3919
   82mC      Cm 2782   3.870   6.456  22.300  0.3249 -1.1466 -0.7379
   83mR      Rm 2783   4.121   6.559  22.511 -1.5412  0.4515 -0.2163
   84mB      Bm 2784   3.650   6.165  22.245 -0.0138 -0.5108 -0.6565
   85mA      Am 2785   3.399   5.897  22.316 -1.0729  0.9520 -0.4915
   86mB      Bm 2786   3.191   5.733  22.565 -0.6135 -1.0505  0.1116
   87mC      Cm 2787   3.018   5.656  22.892  0.8145  0.2520 -0.5003
   88mC      Cm 2788   2.824   5.738  23.238 -0.7131  0.1845  0.0788
   89mR      Rm 2789   3.071   5.521  23.189 -0.0121 -0.1967 -0.6003
   90mB      Bm 2790   2.680   5.978  23.488 -0.5934  0.0976 -0.2147
   91mA      Am 2791   2.647   6.279  23.701  0.4536 -0.6028 -0.2222
   92mB      Bm 2792   2.826   6.571  23.845 -0.3659  0.3213  0.4976
   93mC      Cm 2793   3.081   6.812  23.939 -0.4618 -0.2264 -0.3308
   94mC      Cm 2794   3.392   7.066  23.871  0.2820  0.0304  1.4051
   95mR      Rm 2795   3.366   6.853  24.123 -0.3422  1.0362 -0.0380
   96mB      Bm 2796   3.626   7.233  23.646 -0.1642  0.7594 -0.7285
   97mA      Am 2797   3.898   7.267  23.402  1.1536 -0.8434 -0.3513
   98mB      Bm 2798   4.162   7.105  23.208 -0.8407  0.1868 -0.2343
   99mC      Cm 2799   4.403   6.858  23.060 -0.6555  0.6938  0.7657
  100mC      Cm 2800   4.492   6.476  22.949 -0.6552 -0.0564 -0.1308
  101mR      Rm 2801   4.676   6.676  23.144  1.4239  0.3871  0.5540
  102mB      Bm 2802   4.445   6.129  22.854 -0.6882 -1.2525  0.0363
  103mA      Am 2803   4.329   5.783  22.854  0.3738 -0.3058  0.0336
  104mB      Bm 2804   4.147   5.523  23.050  0.6317  1.0108 -0.0502
  105mC      Cm 2805   3.959   5.337  23.318 -1.5230 -0.0084  0.1196
  106mC      Cm 2806   3.670   5.301  23.601  0.3510  0.0365 -0.9616
  107mR      Rm 2807   3.993   5.195  23.621  0.4944 -0.1729  0.8633
  108tB      Bt 2808   3.332   5.271  23.739  0.3779  0.0492  0.4152
    1hA      Ah 2809   6.970   3.426  26.570 -0.8258  0.1908 -0.0893
    2mB      Bm 2810   7.211   3.248  26.805  0.2379  0.0546 -0.0553
    3mC      Cm 2811   7.316   3.011  27.076  0.0082  0.7484 -1.2504
    4mC      Cm 2812   7.265   2.653  27.277  0.3561 -1.3806  0.7872
    5mR      Rm 2813   7.357   2.959  27.408  1.2611 -0.4455  1.9172
    6mB      Bm 2814   7.116   2.322  27.339 -0.1846 -0.7553  0.5616
    7mA      Am 2815   6.868   2.072  27.415  1.4256 -0.0377  0.1209
    8mB      Bm 2816   6.521   1.972  27.499 -0.1765  1.2657  0.0894
    9mC      Cm 2817   6.171   1.971  27.582 -0.6632 -0.8678  0.1014
   10mC      Cm 2818   5.785   2.103  27.544  0.1948  0.3866 -0.5297
   11mR      Rm 2819   5.943   2.032  27.828  0.0568 -0.7553  1.6055
   12mB      Bm 2820   5.515   2.312  27.398 -0.3784  0.3315  0.6821
   13mA      Am 2821   5.329   2.604  27.266  0.3112 -0.5940 -0.0983
   14mB      Bm 2822   5.367   2.968  27.220  0.5558  0.0833  0.9485
   15mC      Cm 2823   5.498   3.312  27.240  0.7680 -1.1998  0.0925
   16mC      Cm 2824   5.779   3.612  27.230  0.3544  0.4262  0.1809
   17mR      Rm 2825   5.542   3.558  27.453 -0.2382 -0.5427 -0.0861
   18mB      Bm 2826   6.118   3.751  27.179 -0.3315  0.0339 -0.3215
   19mA      Am 2827   6.478   3.774  27.201  0.6984  0.1370  0.1314
   20mB      Bm 2828   6.813   3.651  27.335 -0.4686  0.1875  0.0642
   21mC      Cm 2829   7.057   3.452  27.536 -0.2886 -0.9718 -0.5552
   22mC      Cm 2830   7.168   3.103  27.716 -0.6219  0.2526  0.2196
   23mR      Rm 2831   7.149   3.406  27.858 -1.1100 -0.0735  0.1961
   24mB      Bm 2832   7.116   2.746  27.802 -0.4227 -0.7712  0.4251
   25mA      Am 2833   6.955   2.431  27.920 -1.2258  0.2617 -0.3925
   26mB      Bm 2834   6.655   2.268  28.063  0.5509 -0.9532 -0.1403
   27mC      Cm 2835   6.315   2.220  28.195  1.3129 -0.5690 -0.6131
   28mC      Cm 2836   5.912   2.294  28.188 -0.1136  0.6473  0.2112
   29mR      Rm 2837   6.101   2.253  28.455 -0.8291 -0.1468  0.0864
   30mB      Bm 2838   5.615   2.467  28.046 -0.2025 -1.4083  0.3684
   31mA      Am 2839   5.385   2.732  27.912  0.0549  0.2245  0.4041
   32mB      Bm 2840   5.353   3.090  27.858  0.3218 -0.4867  0.2963
   33mC      Cm 2841   5.425   3.460  27.853 -0.7866  0.1080 -0.2403
   34mC      Cm 2842   5.656   3.792  27.791  0.5312 -0.0919 -0.1719
   35mR      Rm 2843   5.415   3.745  28.030  0.6472 -0.1720 -0.1282
   36mB      Bm 2844   5.968   3.965  27.709 -0.5772  0.8112  0.5722
   37mA      Am 2845   6.326   4.070  27.694  0.4712  0.5578 -0.2531
   38mB      Bm 2846   6.657   4.003  27.854 -0.0613  0.1848  0.2751
   39mC      Cm 2847   6.899   3.844  28.080  0.3460  1.5233  0.6697
   40mC      Cm 2848   7.070   3.531  28.278  0.2900 -0.5218 -1.0293
   41mR      Rm 2849   6.994   3.834  28.409 -0.6605  0.3592 -0.2236
   42mB      Bm 2850   7.090   3.168  28.377 -0.4315  0.8077  0.0306
   43mA      Am 2851   6.992   2.824  28.485  0.5316 -0.0529  0.0022
   44mB      Bm 2852   6.708   2.604  28.587  0.5179  0.0805  0.2732
   45mC      Cm 2853   6.369   2.504  28.685 -0.4678  0.7071 -0.5031
   46mC      Cm 2854   5.962   2.573  28.671 -0.9154  0.1160 -0.7972
   47mR      Rm 2855   6.149   2.533  28.949 -1.5796 -0.5699 -0.0120
   48mB      Bm 2856   5.660   2.714  28.536 -0.7658  0.2141 -0.0027
   49mA      Am 2857   5.415   2.966  28.418  0.6420 -0.1587  0.9897
   50mB      Bm 2858   5.373   3.329  28.380  0.2903  0.4332 -0.5518
   51mC      Cm 2859   5.429   3.699  28.393  0.3301 -1.0888 -0.1487
   52mC      Cm 2860   5.646   4.033  28.337 -1.0873  0.3316 -0.1698
   53mR      Rm 2861   5.423   3.976  28.589  0.7067  0.9790 -0.5560
   54mB      Bm 2862   5.958   4.236  28.264 -0.2076 -0.1763 -0.0786
   55mA      Am 2863   6.311   4.353  28.266  0.8248  0.0241 -0.2490
   56mB      Bm 2864   6.658   4.304  28.407  0.9150 -1.1956 -0.2078
   57mC      Cm 2865   6.929   4.162  28.601 -0.5346  0.3860  0.0109
   58mC      Cm 2866   7.149   3.849  28.759  0.1745 -0.3549  0.1931
   59mR      Rm 2867   7.041   4.142  28.915 -0.2196  0.9256  0.9543
   60mB      Bm 2868   7.221   3.490  28.819  0.3593  0.7836  0.0694
   61mA      Am 2869   7.180   3.123  28.908 -0.1958 -0.4890  0.2629
   62mB      Bm 2870   6.950   2.895  29.072  0.5901  0.6582 -0.6102
   63mC      Cm 2871   6.642   2.772  29.245 -0.5743 -0.3009 -0.1719
   64mC      Cm 2872   6.239   2.788  29.289  0.8208  0.0479 -0.9040
   65mR      Rm 2873   6.468   2.815  29.537 -0.1924  1.9314  1.5398
   66mB      Bm 2874   5.890   2.880  29.190 -0.6155  0.2355 -0.5318
   67mA      Am 2875   5.579   3.069  29.103 -0.2543  0.2550  0.0393
   68mB      Bm 2876   5.447   3.409  29.031  0.6773  1.3838  0.0804
   69mC      Cm 2877   5.415   3.779  28.995 -0.1165 -1.2148  0.4254
   70mC      Cm 2878   5.524   4.167  28.909  0.4007 -0.1683  0.6362
   71mR      Rm 2879   5.369   4.061  29.188 -0.4398 -0.0148 -1.1458
   72mB      Bm 2880   5.793   4.395  28.787 -0.1918 -0.1803 -0.1986
   73mA      Am 2881   6.143   4.542  28.757  0.6308  0.5089 -0.1395
   74mB      Bm 2882   6.488   4.494  28.887 -0.2626  0.7849  0.7326
   75mC      Cm 2883   6.775   4.378  29.088  0.5159 -0.0913 -0.1920
   76mC      Cm 2884   6.982   4.077  29.291  0.9698 -0.8721  0.4245
   77mR      Rm 2885   6.911   4.391  29.395 -0.7763  0.9811 -0.2777
   78mB      Bm 2886   7.045   3.726  29.397  0.3335 -0.0045  0.4559
   79mA      Am 2887   7.009   3.383  29.525 -1.1571  0.3502  0.3389
   80mB      Bm 2888   6.757   3.172  29.692  0.6063 -0.2347 -0.5166
   81mC      Cm 2889   6.443   3.061  29.864  0.3314 -0.1028 -0.7065
   82mC      Cm 2890   6.038   3.037  29.917  0.3954 -0.5569 -0.1086
   83mR      Rm 2891   6.273   3.080  30.162  0.1437 -0.9574  0.0135
   84mB      Bm 2892   5.700   3.125  29.808 -1.3714  0.7842  0.8250
   85mA      Am 2893   5.430   3.330  29.675  0.1639 -1.2217 -0.1340
   86mB      Bm 2894   5.261   3.646  29.571 -0.1962  1.2222 -0.9021
   87mC      Cm 2895   5.209   4.008  29.519 -0.3147 -0.0913  0.0594
   88mC      Cm 2896   5.372   4.376  29.455  0.5253 -0.4128  0.0023
   89mR      Rm 2897   5.136   4.293  29.683 -0.5330  0.2613 -0.4983
   90mB      Bm 2898   5.632   4.630  29.377  0.1481 -0.4926  0.2153
   91mA      Am 2899   5.953   4.805  29.393 -0.2311  0.7527 -0.5261
   92mB      Bm 2900   6.299   4.830  29.522  0.5917  0.2053 -0.4129
   93mC      Cm 2901   6.617   4.766  29.707 -0.6476 -1.0472  0.2146
   94mC      Cm 2902   6.889   4.493  29.845  0.8691 -0.2037 -0.0939
   95mR      Rm 2903   6.757   4.783  30.001 -1.8375 -1.7388 -1.3877
   96mB      Bm 2904   7.011   4.156  29.916 -0.3204 -0.3516 -0.0545
   97mA      Am 2905   7.037   3.806  30.040 -0.5444  0.3680 -0.3693
   98mB      Bm 2906   6.892   3.515  30.227 -0.2909 -0.0229  0.1850
   99mC      Cm 2907   6.669   3.291  30.427 -0.6091  0.8671  0.9255
  100mC      Cm 2908   6.311   3.156  30.557  1.1601  0.2046 -0.4645
  101mR      Rm 2909   6.562   3.278  30.749  0.7792  0.3864 -0.5532
  102mB      Bm 2910   5.945   3.103  30.584  0.1172 -0.1175  0.4399
  103mA      Am 2911   5.578   3.159  30.616 -0.7206 -0.0680  0.1406
  104mB      Bm 2912   5.310   3.405  30.610 -0.4260  0.8047 -1.2637
  105mC      Cm 2913   5.132   3.725  30.598 -0.1931  1.4143 -0.5969
  106mC      Cm 2914   5.083   4.106  30.455  1.0144 -1.8310  1.0744
  107mR      Rm 2915   5.048   3.999  30.779 -0.5034 -1.4479  0.4669
  108tB      Bt 2916   5.149   4.415  30.233  0.1726 -0.2041 -0.0338
    1hA      Ah 2917   4.313   0.333  15.024 -0.2724 -0.3023  0.1902
    2mB      Bm 2918   4.079   0.129  14.822  0.4847  0.9582  1.0711
    3mC      Cm 2919   3.769  -0.003  14.671 -0.6804 -0.9366 -0.3813
    4mC      Cm 2920   3.403   0.027  14.479 -0.2857 -0.0738  0.3471
    5mR      Rm 2921   3.477  -0.164  14.746 -0.6849  0.2134  0.7946
    6mB      Bm 2922   3.110   0.203  14.312 -0.5291  0.3505 -0.7733
    7mA      Am 2923   2.839   0.433  14.248  0.5831  0.7153  0.3983
    8mB      Bm 2924   2.631   0.724  14.356 -0.1456 -0.1372  0.9757
    9mC      Cm 2925   2.498   0.981  14.575  0.2496 -0.4108 -0.7087
   10mC      Cm 2926   2.555   1.283  14.844 -0.4546  0.3812 -1.1220
   11mR      Rm 2927   2.334   1.032  14.867  0.9515 -0.8678 -0.4838
   12mB      Bm 2928   2.763   1.517  15.055  0.4121 -0.4634  0.0843
   13mA      Am 2929   3.004   1.623  15.311 -0.7554  0.9159 -0.0201
   14mB      Bm 2930   3.274   1.522  15.539  0.4510 -0.4060 -0.0112
   15mC      Cm 2931   3.525   1.328  15.732  0.0660  0.7159  0.3349
   16mC      Cm 2932   3.775   1.016  15.793  0.5255 -0.7551 -0.4125
   17mR      Rm 2933   3.530   1.128  16.001 -0.1753  0.1441 -0.9784
   18mB      Bm 2934   3.951   0.703  15.671 -0.0878  0.4836  0.3903
   19mA      Am 2935   3.991   0.375  15.513  0.0954 -0.0969  0.3764
   20mB      Bm 2936   3.810   0.092  15.345  0.0074 -0.1790 -0.3002
   21mC      Cm 2937   3.535  -0.117  15.199  0.0021  1.0482 -0.0684
   22mC      Cm 2938   3.188  -0.194  14.992 -0.3518 -1.7090 -0.0363
   23mR      Rm 2939   3.291  -0.335  15.272 -0.0606 -0.7120  1.0591
   24mB      Bm 2940   2.891  -0.108  14.800 -0.3558  0.0748 -0.2366
   25mA      Am 2941   2.572   0.065  14.701  0.4316  0.2165 -0.1418
   26mB      Bm 2942   2.325   0.335  14.781  0.0757  0.1014 -0.1034
   27mC      Cm 2943   2.131   0.617  14.939  0.4000  0.6836  0.8150
   28mC      Cm 2944   2.117   0.962  15.155 -0.3852 -1.0065 -0.8845
   29mR      Rm 2945   1.931   0.682  15.195 -0.2450 -1.0253  1.0299
   30mB      Bm 2946   2.288   1.234  15.344 -0.1040  0.0081  1.2636
   31mA      Am 2947   2.522   1.404  15.568  0.7898  0.3734  0.3010
   32mB      Bm 2948   2.775   1.355  15.834 -0.7279 -0.4504 -0.6642
   33mC      Cm 2949   3.005   1.198  16.084  0.1318  0.5090 -0.4645
   34mC      Cm 2950   3.275   0.914  16.199 -0.6971 -0.2462  0.2914
   35mR      Rm 2951   3.014   1.020  16.377 -0.1912 -0.2876 -0.6966
   36mB      Bm 2952   3.500   0.627  16.140  0.2230 -0.8631 -0.2641
   37mA      Am 2953   3.621   0.295  16.036 -1.1006  0.1034 -0.0202
   38mB      Bm 2954   3.525  -0.030  15.877  0.5309 -0.5183 -0.2827
   39mC      Cm 2955   3.329  -0.313  15.742 -0.7171  0.1525  0.0173
   40mC      Cm 2956   3.038  -0.472  15.499  0.1698 -0.1849  0.7483
   41mR      Rm 2957   3.108  -0.553  15.815  0.6355  0.6807 -1.0243
   42mB      Bm 2958   2.752  -0.438  15.260 -0.3742  0.0514  0.9460
   43mA      Am 2959   2.435  -0.316  15.123  0.5137  0.0501 -0.6092
   44mB      Bm 2960   2.137  -0.092  15.159  0.2074 -0.0275  1.4885
   45mC      Cm 2961   1.904   0.154  15.308 -0.5404 -0.8746 -0.6083
   46mC      Cm 2962   1.811   0.507  15.499 -0.1965  0.6740  0.2031
   47mR      Rm 2963   1.691   0.200  15.571 -0.1948  0.5346 -1.3781
   48mB      Bm 2964   1.914   0.814  15.670  0.3255  0.9593  0.2483
   49mA      Am 2965   2.101   1.042  15.902 -0.6210  0.7348 -0.8343
   50mB      Bm 2966   2.360   1.046  16.159 -0.0525  0.5194  0.5842
   51mC      Cm 2967   2.606   0.924  16.401 -1.2270  0.0242 -0.4826
   52mC      Cm 2968   2.907   0.696  16.552  0.7185 -0.4783  0.3556
   53mR      Rm 2969   2.638   0.818  16.717 -0.7938  0.3366  1.0695
   54mB      Bm 2970   3.150   0.417  16.527 -0.2781 -0.2232  0.4626
   55mA      Am 2971   3.282   0.067  16.449 -0.2579  0.2301  0.2425
   56mB      Bm 2972   3.203  -0.273  16.317 -0.3274 -0.0885  0.0090
   57mC      Cm 2973   2.997  -0.546  16.172  0.0235  0.6589  0.3284
   58mC      Cm 2974   2.723  -0.728  15.933 -0.5432 -0.3598  0.2026
   59mR      Rm 2975   2.770  -0.777  16.272  0.7383 -0.8265 -0.7657
   60mB      Bm 2976   2.441  -0.712  15.699  0.0183  0.4012 -0.6124
   61mA      Am 2977   2.117  -0.596  15.561  0.0154 -0.9465 -0.1061
   62mB      Bm 2978   1.816  -0.373  15.580 -0.5672  0.1916 -0.2432
   63mC      Cm 2979   1.573  -0.135  15.712  0.3747  0.6652  0.7176
   64mC      Cm 2980   1.469   0.206  15.899  0.4708 -0.1775  0.2309
   65mR      Rm 2981   1.342  -0.104  15.959  0.1046  0.1648  0.1501
   66mB      Bm 2982   1.542   0.523  16.075 -0.2370  0.0219  0.0758
   67mA      Am 2983   1.706   0.753  16.309  0.4427  0.2183  0.2956
   68mB      Bm 2984   1.960   0.775  16.580 -0.2291 -0.6063  0.0503
   69mC      Cm 2985   2.211   0.676  16.833  0.3573 -0.1989  0.1509
   70mC      Cm 2986   2.538   0.468  16.952 -0.4027  1.1312 -0.2444
   71mR      Rm 2987   2.258   0.532  17.132 -0.3744  1.0408 -0.5693
   72mB      Bm 2988   2.807   0.210  16.937 -0.0879 -0.3782  0.0075
   73mA      Am 2989   2.962  -0.117  16.884 -0.3181  0.2254 -0.5034
   74mB      Bm 2990   2.899  -0.469  16.771 -0.5382 -0.6829 -0.5268
   75mC      Cm 2991   2.708  -0.771  16.653  0.0928  0.3327 -0.1076
   76mC      Cm 2992   2.444  -0.966  16.408 -0.0169 -0.3353 -1.3559
   77mR      Rm 2993   2.498  -1.025  16.741 -1.4114 -0.8544  1.9205
   78mB      Bm 2994   2.172  -0.977  16.156  0.3532  0.7909 -0.3679
   79mA      Am 2995   1.855  -0.894  15.986  0.0960  0.2507 -0.0407
   80mB      Bm 2996   1.553  -0.694  16.003  0.2287 -0.2889  0.2286
   81mC      Cm 2997   1.283  -0.469  16.116 -1.0531  0.6653  0.1388
   82mC      Cm 2998   1.137  -0.130  16.295  0.3777 -0.5004  1.3362
   83mR      Rm 2999   1.027  -0.442  16.333  0.2197 -1.1320 -0.5691
   84mB      Bm 3000   1.194   0.205  16.445 -0.1997 -0.4789 -0.7347
   85mA      Am 3001   1.344   0.472  16.662  0.5945  0.0174 -0.6621
   86mB      Bm 3002   1.568   0.526  16.945 -0.1880 -0.3809  0.4941
   87mC      Cm 3003   1.798   0.452  17.230  0.2138 -0.1533 -0.5125
   88mC      Cm 3004   2.119   0.263  17.393  0.0028 -0.1431 -0.4164
   89mR      Rm 3005   1.827   0.321  17.547  0.0753 -0.5931 -0.0403
   90mB      Bm 3006   2.405   0.030  17.382  0.4900  0.7206  0.6330
   91mA      Am 3007   2.578  -0.290  17.341  0.0900  0.4607 -0.2629
   92mB      Bm 3008   2.565  -0.652  17.249  0.0090 -0.0251 -0.0952
   93mC      Cm 3009   2.439  -0.985  17.137  1.7986  0.4844  0.0120
   94mC      Cm 3010   2.180  -1.204  16.906 -0.1278 -0.4559 -0.5026
   95mR      Rm 3011   2.233  -1.240  17.241 -0.5010 -0.6861  1.3498
   96mB      Bm 3012   1.932  -1.240  16.627  0.0436 -0.3869  0.3634
   97mA      Am 3013   1.620  -1.181  16.422 -0.5062 -0.2199 -0.6071
   98mB      Bm 3014   1.300  -1.008  16.415  0.0453  0.5514  0.2520
   99mC      Cm 3015   1.020  -0.802  16.522  0.6258 -1.0211 -0.1238
  100mC      Cm 3016   0.847  -0.453  16.670 -0.2485  1.2069  0.6635
  101mR      Rm 3017   0.751  -0.775  16.722 -1.4691 -0.1677  0.4795
  102mB      Bm 3018   0.863  -0.097  16.805 -0.0180 -0.5025  0.2087
  103mA      Am 3019   0.954   0.193  17.016  0.7629  0.4282  0.1417
  104mB      Bm 3020   1.164   0.281  17.312  0.3670 -0.2391 -0.4574
  105mC      Cm 3021   1.372   0.258  17.612 -0.6831  0.4643 -0.4728
  106mC      Cm 3022   1.681   0.115  17.840  1.5309 -0.0250  0.7387
  107mR      Rm 3023   1.370   0.180  17.943 -1.3061 -0.8011 -0.1543
  108tB      Bt 3024   1.985  -0.096  17.920 -0.5249  0.4691  0.1334
    1hA      Ah 3025  11.814   1.080  13.104 -0.2716 -0.4913  0.0497
    2mB      Bm 3026  12.166   1.162  13.019 -0.1485  0.2758 -0.4693
    3mC      Cm 3027  12.510   1.151  12.878  0.4558  0.3070 -0.2768
    4mC      Cm 3028  12.787   1.120  12.575 -0.2689 -0.0142 -0.0460
    5mR      Rm 3029  12.803   0.988  12.884  0.6936 -0.8456 -0.6124
    6mB      Bm 3030  12.900   1.079  12.231  0.4783 -0.3943 -0.0048
    7mA      Am 3031  12.931   0.955  11.876  0.0195 -0.0339 -0.0300
    8mB      Bm 3032  12.777   0.733  11.617 -0.3689  0.4388 -0.5933
    9mC      Cm 3033  12.547   0.494  11.466 -0.0715  0.5512 -0.4264
   10mC      Cm 3034  12.176   0.323  11.411  0.3689 -1.0492  0.5013
   11mR      Rm 3035  12.469   0.157  11.469  1.8381 -0.2464 -0.1649
   12mB      Bm 3036  11.802   0.295  11.448 -0.5345  0.7954  0.5220
   13mA      Am 3037  11.479   0.274  11.625 -0.4647 -0.5656 -0.0002
   14mB      Bm 3038  11.283   0.270  11.944  0.8566  0.1146 -0.8082
   15mC      Cm 3039  11.211   0.247  12.303 -0.0443 -0.0531 -0.0826
   16mC      Cm 3040  11.281   0.341  12.691 -0.8361  0.4782 -0.4655
   17mR      Rm 3041  11.193   0.043  12.565 -0.3414  0.9836  0.5848
   18mB      Bm 3042  11.480   0.510  12.957 -0.2697 -0.7264 -0.0167
   19mA      Am 3043  11.754   0.635  13.167 -0.9060  0.3887 -0.2319
   20mB      Bm 3044  12.127   0.670  13.210  0.7007 -0.8166 -0.9265
   21mC      Cm 3045  12.495   0.606  13.142  0.3083  0.7244  1.2709
   22mC      Cm 3046  12.821   0.551  12.897  0.6029  0.1464 -0.1131
   23mR      Rm 3047  12.739   0.376  13.178  0.1782  0.6055 -0.6622
   24mB      Bm 3048  12.984   0.520  12.556 -0.8384  0.7304  0.5311
   25mA      Am 3049  13.036   0.418  12.210  0.2297 -0.2136 -0.3682
   26mB      Bm 3050  12.918   0.205  11.922 -0.0019  0.0557 -0.8161
   27mC      Cm 3051  12.715  -0.031  11.721 -0.3067  0.9281  0.2820
   28mC      Cm 3052  12.365  -0.205  11.610  0.0251 -0.5156  0.7283
   29mR      Rm 3053  12.657  -0.361  11.666  0.1829 -0.9158 -0.5205
   30mB      Bm 3054  11.995  -0.229  11.610  1.0926  0.4781 -0.4406
   31mA      Am 3055  11.643  -0.258  11.728 -0.1964 -0.0628 -0.3969
   32mB      Bm 3056  11.428  -0.271  12.029 -0.3621  0.7189  0.4956
   33mC      Cm 3057  11.320  -0.305  12.386  0.4938 -0.6823 -0.0557
   34mC      Cm 3058  11.332  -0.231  12.785 -0.0815 -0.5320  0.7005
   35mR      Rm 3059  11.294  -0.533  12.635 -1.1560 -0.7019  0.3765
   36mB      Bm 3060  11.463  -0.056  13.095 -0.6423  0.9988  0.2632
   37mA      Am 3061  11.692   0.077  13.343  0.4514 -0.9562 -0.2347
   38mB      Bm 3062  12.060   0.109  13.415 -0.9718  0.4134 -0.2618
   39mC      Cm 3063  12.432   0.051  13.399 -0.0825 -0.7356  0.0444
   40mC      Cm 3064  12.790   0.008  13.198  0.9092  0.1954  0.3599
   41mR      Rm 3065  12.677  -0.168  13.469  0.4772 -0.4582 -0.3601
   42mB      Bm 3066  12.973   0.002  12.884  0.0910  0.4358 -0.9373
   43mA      Am 3067  13.065  -0.081  12.544 -0.0092 -0.0263 -0.1961
   44mB      Bm 3068  13.001  -0.284  12.232  0.7557  0.1484 -0.3181
   45mC      Cm 3069  12.839  -0.535  12.000  0.8437  0.7925  0.2569
   46mC      Cm 3070  12.525  -0.720  11.814 -0.4211 -0.2073 -0.0634
   47mR      Rm 3071  12.803  -0.865  11.932  0.4506 -0.0919 -0.2757
   48mB      Bm 3072  12.171  -0.773  11.749  0.3128 -0.6106 -0.7881
   49mA      Am 3073  11.808  -0.836  11.810  0.0693  0.4761 -0.4177
   50mB      Bm 3074  11.564  -0.893  12.079 -0.8058 -0.9134 -0.1626
   51mC      Cm 3075  11.416  -0.939  12.416 -0.5235 -0.8234 -0.0513
   52mC      Cm 3076  11.368  -0.867  12.821 -1.1568  0.1658  0.1031
   53mR      Rm 3077  11.371  -1.168  12.661 -0.2785 -0.9755 -0.8325
   54mB      Bm 3078  11.446  -0.697  13.142  0.5292  0.4287 -0.3793
   55mA      Am 3079  11.626  -0.544  13.429  0.1194 -0.8384  0.2490
   56mB      Bm 3080  11.962  -0.491  13.566 -0.2493  0.4981 -0.0924
   57mC      Cm 3081  12.340  -0.516  13.609  0.2949  0.1110  0.5027
   58mC      Cm 3082  12.725  -0.542  13.472 -0.9124  0.6982 -0.6693
   59mR      Rm 3083  12.576  -0.724  13.707 -0.1276 -0.4980 -1.1938
   60mB      Bm 3084  12.964  -0.552  13.193 -0.4512  0.3918  0.0775
   61mA      Am 3085  13.122  -0.636  12.866 -0.5959 -0.1058  0.1023
   62mB      Bm 3086  13.127  -0.841  12.556  0.0312  0.1305 -0.0669
   63mC      Cm 3087  12.997  -1.087  12.307 -0.6333  0.9767 -1.0990
   64mC      Cm 3088  12.717  -1.263  12.082  0.2166  0.1988  1.4116
   65mR      Rm 3089  12.979  -1.417  12.222 -0.2417 -0.3489 -0.1046
   66mB      Bm 3090  12.370  -1.320  11.959 -0.8325  0.6039 -0.6119
   67mA      Am 3091  12.008  -1.373  11.967 -0.0631 -0.0662 -0.3224
   68mB      Bm 3092  11.710  -1.434  12.182  0.4325  0.2506  0.4019
   69mC      Cm 3093  11.529  -1.499  12.496  0.6543  1.1356 -0.1167
   70mC      Cm 3094  11.446  -1.461  12.894 -0.3070 -0.7732 -0.9781
   71mR      Rm 3095  11.463  -1.750  12.723  0.5073 -0.0724  0.4012
   72mB      Bm 3096  11.505  -1.299  13.229 -0.4986  0.0291  0.2241
   73mA      Am 3097  11.652  -1.150  13.525 -1.0187 -0.3576 -0.4557
   74mB      Bm 3098  11.964  -1.091  13.694  0.3981 -0.0277 -0.1218
   75mC      Cm 3099  12.324  -1.106  13.782  0.6960  0.0378 -0.0227
   76mC      Cm 3100  12.728  -1.111  13.713 -0.1097 -1.0670 -0.7832
   77mR      Rm 3101  12.552  -1.309  13.911  1.3558  0.1483  0.8837
   78mB      Bm 3102  13.029  -1.107  13.489 -0.0340 -0.3067 -0.0007
   79mA      Am 3103  13.262  -1.174  13.208  0.6367  0.1939 -0.3227
   80mB      Bm 3104  13.294  -1.373  12.894  0.7019  0.3123  0.2724
   81mC      Cm 3105  13.211  -1.623  12.621 -1.0138 -0.2623 -1.3676
   82mC      Cm 3106  12.950  -1.781  12.356  0.2709  0.5739  0.5155
   83mR      Rm 3107  13.168  -1.950  12.556  0.7429  0.1584  1.0486
   84mB      Bm 3108  12.611  -1.809  12.199 -0.0546  0.0218  0.8419
   85mA      Am 3109  12.255  -1.866  12.141 -0.4812  0.5346 -1.0209
   86mB      Bm 3110  11.928  -1.977  12.277  0.3542 -0.6420  0.3676
   87mC      Cm 3111  11.671  -2.093  12.515 -1.1377  0.2788  0.9948
   88mC      Cm 3112  11.493  -2.106  12.885  0.2790  0.6714  0.2978
   89mR      Rm 3113  11.589  -2.370  12.706 -0.0854  0.6454 -0.3077
   90mB      Bm 3114  11.455  -1.984  13.231  0.3202  0.3998 -0.3453
   91mA      Am 3115  11.532  -1.896  13.588 -0.5059 -0.5759  0.0327
   92mB      Bm 3116  11.772  -1.913  13.875  0.4659 -0.0171 -0.6179
   93mC      Cm 3117  12.064  -1.987  14.090  0.0155 -0.2275  1.1426
   94mC      Cm 3118  12.458  -1.997  14.187  0.3408 -1.1644 -0.6025
   95mR      Rm 3119  12.215  -2.229  14.257 -0.9837 -0.2497 -0.7622
   96mB      Bm 3120  12.824  -1.973  14.133 -0.1950  1.1880  1.4265
   97mA      Am 3121  13.171  -1.983  14.009  0.1423 -0.2062 -0.3655
   98mB      Bm 3122  13.393  -2.112  13.755 -0.0820  0.6600  0.6563
   99mC      Cm 3123  13.495  -2.312  13.456 -0.0416 -0.3998  0.6751
  100mC      Cm 3124  13.455  -2.438  13.070  0.1728  0.4439 -0.8182
  101mR      Rm 3125  13.507  -2.627  13.344 -0.3446  0.0777  0.1045
  102mB      Bm 3126  13.298  -2.425  12.733 -0.2388 -0.4714 -0.3407
  103mA      Am 3127  13.038  -2.398  12.468  0.0251 -0.0839  0.5974
  104mB      Bm 3128  12.682  -2.343  12.404 -0.0529 -0.3538  0.2479
  105mC      Cm 3129  12.324  -2.297  12.475  0.6705 -0.6241  0.3719
  106mC      Cm 3130  12.026  -2.098  12.673  0.4674  0.4611  0.2295
  107mR      Rm 3131  12.056  -2.437  12.632 -0.5797  0.4090 -0.2831
  108tB      Bt 3132  11.936  -1.842  12.921  0.4821 -0.5758  0.4907
    1hA      Ah 3133   2.367   1.662  30.926  0.2298  0.5404 -0.6317
    2mB      Bm 3134   2.617   1.861  31.118 -0.1264 -0.9293 -0.3868
    3mC      Cm 3135   2.787   2.143  31.310  0.4653  0.3926  0.2284
    4mC      Cm 3136   2.757   2.456  31.586 -0.5731  0.3568 -1.2085
    5mR      Rm 3137   2.894   2.457  31.280 -0.6688  0.3803  0.7331
    6mB      Bm 3138   2.588   2.651  31.859  1.4564 -0.3331  0.4362
    7mA      Am 3139   2.316   2.828  32.017 -0.8098 -0.5284 -0.3975
    8mB      Bm 3140   1.968   2.933  31.947 -0.0015 -0.0287 -0.0176
    9mC      Cm 3141   1.647   2.969  31.775  0.2249  0.0723  0.2986
   10mC      Cm 3142   1.304   2.830  31.583 -0.9087  0.7490  0.6940
   11mR      Rm 3143   1.489   3.103  31.514  1.2512  0.1850  0.1109
   12mB      Bm 3144   1.109   2.574  31.405 -0.3182  0.0030 -0.1602
   13mA      Am 3145   1.038   2.322  31.148  0.2954  0.1141  0.4727
   14mB      Bm 3146   1.163   2.110  30.869 -1.0006  0.6474 -0.4283
   15mC      Cm 3147   1.374   1.961  30.605  0.1862 -0.1370 -0.9539
   16mC      Cm 3148   1.708   1.798  30.440 -0.0497 -0.4237  0.3999
   17mR      Rm 3149   1.510   2.048  30.311 -0.0687 -0.7059 -0.1965
   18mB      Bm 3150   2.058   1.687  30.420 -0.3430 -0.0032 -0.6573
   19mA      Am 3151   2.431   1.701  30.469 -0.1514  0.0832  0.1369
   20mB      Bm 3152   2.708   1.932  30.557 -0.6098 -0.0175 -0.6418
   21mC      Cm 3153   2.877   2.256  30.624  1.8361  0.7347 -0.1623
   22mC      Cm 3154   2.960   2.617  30.801 -1.4818  0.9532 -0.2794
   23mR      Rm 3155   3.033   2.524  30.484  1.4491  1.1360 -0.4637
   24mB      Bm 3156   2.849   2.916  31.004  0.2500 -0.2193  0.5532
   25mA      Am 3157   2.639   3.202  31.129 -0.5063  0.2391 -0.3145
   26mB      Bm 3158   2.317   3.381  31.122 -0.4184 -0.6588 -0.3444
   27mC      Cm 3159   1.978   3.484  31.028  0.3729 -1.1388 -0.9205
   28mC      Cm 3160   1.584   3.414  30.923 -1.1700 -0.3638  0.0548
   29mR      Rm 3161   1.784   3.667  30.808  0.3615  1.2260 -0.4636
   30mB      Bm 3162   1.294   3.222  30.814  0.9614 -0.1741 -0.4379
   31mA      Am 3163   1.069   2.984  30.635 -1.6781  0.6222 -0.4606
   32mB      Bm 3164   1.052   2.723  30.379  0.6385 -1.2630  0.3255
   33mC      Cm 3165   1.147   2.492  30.104 -0.5284 -0.9684 -0.1176
   34mC      Cm 3166   1.420   2.258  29.910  0.2653  0.0696 -0.4354
   35mR      Rm 3167   1.238   2.505  29.777 -0.0275  0.8522  0.1971
   36mB      Bm 3168   1.754   2.091  29.892 -0.4265 -0.7744  1.8503
   37mA      Am 3169   2.119   2.048  29.902  0.6358  0.4300  0.1156
   38mB      Bm 3170   2.465   2.171  29.947 -0.8186  0.2472 -0.5342
   39mC      Cm 3171   2.743   2.417  29.996  1.1405 -0.0867  0.0992
   40mC      Cm 3172   2.921   2.741  30.167  0.6066 -0.6851  1.5331
   41mR      Rm 3173   2.930   2.646  29.835  0.5869  0.3773  0.0057
   42mB      Bm 3174   2.934   3.045  30.387 -0.4391 -0.8737 -0.1147
   43mA      Am 3175   2.855   3.370  30.550 -0.5134 -0.1765  0.4935
   44mB      Bm 3176   2.565   3.596  30.566 -0.1463  0.5736 -0.4372
   45mC      Cm 3177   2.238   3.764  30.516 -1.1904 -0.0074 -0.2783
   46mC      Cm 3178   1.830   3.751  30.436  0.0019  0.8053  0.8650
   47mR      Rm 3179   2.070   3.932  30.275 -2.3686 -0.5543  0.9393
   48mB      Bm 3180   1.509   3.575  30.348  0.8047  0.2198  0.5683
   49mA      Am 3181   1.256   3.353  30.197  0.2918 -0.5557 -0.3540
   50mB      Bm 3182   1.202   3.090  29.940  0.4834 -0.0274  0.5727
   51mC      Cm 3183   1.282   2.863  29.653  0.5119  0.2107 -0.4052
   52mC      Cm 3184   1.519   2.604  29.447 -0.8252 -0.1240 -0.1405
   53mR      Rm 3185   1.319   2.846  29.320 -0.2699  0.3974  0.4047
   54mB      Bm 3186   1.821   2.402  29.367  0.3948  1.1908 -0.8767
   55mA      Am 3187   2.163   2.289  29.313  0.0007  0.3762  0.6490
   56mB      Bm 3188   2.504   2.399  29.339 -0.9729 -0.6641 -0.2096
   57mC      Cm 3189   2.799   2.617  29.386  0.2287 -0.3400 -1.8502
   58mC      Cm 3190   2.983   2.926  29.576  0.3665  0.2657  0.3551
   59mR      Rm 3191   2.963   2.873  29.246 -0.8944 -0.3653  0.1623
   60mB      Bm 3192   3.013   3.202  29.822 -0.5197 -0.3241  0.2253
   61mA      Am 3193   2.959   3.506  30.011  0.2156  0.2689 -0.3211
   62mB      Bm 3194   2.757   3.807  30.102 -0.0130 -0.0232 -0.5175
   63mC      Cm 3195   2.485   4.072  30.096 -0.3760  0.1680  0.2697
   64mC      Cm 3196   2.094   4.193  30.051  0.2222  0.9551  0.6016
   65mR      Rm 3197   2.364   4.312  29.894 -0.4385 -0.2766  0.8847
   66mB      Bm 3198   1.728   4.121  30.016 -0.2917 -1.0081  0.1839
   67mA      Am 3199   1.427   3.963  29.889  0.2147 -0.2765  0.3093
   68mB      Bm 3200   1.258   3.727  29.648 -0.5422  0.5312 -0.7134
   69mC      Cm 3201   1.216   3.510  29.348 -0.5020  0.5676  0.8346
   70mC      Cm 3202   1.352   3.217  29.088  0.3347 -0.2145  0.1745
   71mR      Rm 3203   1.176   3.489  29.011  0.1062  2.3084  0.0388
   72mB      Bm 3204   1.581   2.951  28.983 -0.2183 -0.4515 -0.0556
   73mA      Am 3205   1.872   2.757  28.872  0.9702 -1.1209  0.8403
   74mB      Bm 3206   2.243   2.800  28.796  0.0955 -0.5904 -0.5226
   75mC      Cm 3207   2.582   2.955  28.770  1.2454  1.2616 -0.2399
   76mC      Cm 3208   2.910   3.159  28.888 -0.3528  0.7101  0.8546
   77mR      Rm 3209   2.795   3.116  28.572  0.5809  0.0647 -0.7858
   78mB      Bm 3210   3.103   3.395  29.105 -0.2241  0.0145 -0.6593
   79mA      Am 3211   3.133   3.704  29.290  0.4934  0.9324  0.2592
   80mB      Bm 3212   2.970   4.009  29.417 -0.4376  0.8891 -1.0215
   81mC      Cm 3213   2.734   4.285  29.483 -1.8833  2.4005  0.7339
   82mC      Cm 3214   2.350   4.426  29.537  0.7864 -1.2861 -0.5705
   83mR      Rm 3215   2.600   4.565  29.343 -0.1395 -0.5087  0.4903
   84mB      Bm 3216   1.979   4.405  29.565  1.4273 -0.1545 -0.1543
   85mA      Am 3217   1.621   4.322  29.495 -0.2456  0.4003 -0.7186
   86mB      Bm 3218   1.403   4.152  29.263  0.5588 -1.0216  0.9444
   87mC      Cm 3219   1.295   3.945  28.971  0.6631  0.8064 -0.2868
   88mC      Cm 3220   1.297   3.635  28.712 -0.1046 -0.3268 -0.7401
   89mR      Rm 3221   1.229   3.958  28.647 -0.3474  0.8127 -1.0845
   90mB      Bm 3222   1.468   3.341  28.560  0.5714  0.0994  0.9854
   91mA      Am 3223   1.728   3.133  28.404 -0.4455  0.3669  0.0488
   92mB      Bm 3224   2.081   3.147  28.293 -0.2848  0.1068 -0.6310
   93mC      Cm 3225   2.426   3.257  28.200 -0.1680 -0.6748 -0.3013
   94mC      Cm 3226   2.768   3.469  28.281  0.0580 -1.0085 -0.4447
   95mR      Rm 3227   2.587   3.483  28.003 -0.7170  0.7435 -0.9535
   96mB      Bm 3228   2.971   3.682  28.493 -0.5928  0.1612 -0.1966
   97mA      Am 3229   3.081   3.956  28.705  0.3216  0.8695  0.7712
   98mB      Bm 3230   2.986   4.290  28.845 -0.4334 -0.1178 -0.8466
   99mC      Cm 3231   2.791   4.594  28.916  0.4714  0.2346  0.5511
  100mC      Cm 3232   2.427   4.772  28.979  1.1342 -0.3706  0.3717
  101mR      Rm 3233   2.664   4.871  28.763  0.0389 -0.2884 -0.7890
  102mB      Bm 3234   2.065   4.767  29.049 -0.2338 -0.2061 -0.3219
  103mA      Am 3235   1.707   4.686  29.019  0.8726  0.6495  0.5498
  104mB      Bm 3236   1.427   4.544  28.827  0.2467 -0.5616  0.1918
  105mC      Cm 3237   1.247   4.359  28.560 -0.6359 -0.3058  0.0577
  106mC      Cm 3238   1.170   4.035  28.330 -0.0410  0.9002 -0.9958
  107mR      Rm 3239   1.182   4.352  28.229 -0.8245 -0.5980 -0.7956
  108tB      Bt 3240   1.009   3.713  28.248 -0.0909 -0.0180 -0.5472
    1hA      Ah 3241   2.753   3.159  19.163 -0.2013 -0.5998  0.5173
    2mB      Bm 3242   2.743   3.517  19.254  0.0127 -0.1348  0.5525
    3mC      Cm 3243   2.687   3.834  19.444 -0.5306  0.7074  1.4318
    4mC      Cm 3244   2.711   4.065  19.782 -1.3848 -0.2385 -0.3944
    5mR      Rm 3245   2.437   4.020  19.585  1.4744  0.4160 -0.2434
    6mB      Bm 3246   2.817   4.146  20.122  1.2122  0.0266 -0.0772
    7mA      Am 3247   2.857   4.103  20.489 -0.2599  0.1504  0.5673
    8mB      Bm 3248   2.759   3.891  20.774  0.2434  0.1138  0.4584
    9mC      Cm 3249   2.610   3.633  20.981 -0.3647  0.1334 -0.2503
   10mC      Cm 3250   2.491   3.248  21.071  1.0386 -0.2444  0.2578
   11mR      Rm 3251   2.312   3.546  21.107  0.4782  1.1865  0.5691
   12mB      Bm 3252   2.438   2.891  20.998  0.1764  0.7962 -0.3398
   13mA      Am 3253   2.360   2.578  20.811 -0.9758  0.4113  0.3865
   14mB      Bm 3254   2.217   2.426  20.504 -0.0016 -0.6473  0.1230
   15mC      Cm 3255   2.042   2.396  20.175  0.5111  0.2368 -0.3277
   16mC      Cm 3256   1.962   2.483  19.775 -0.3686 -0.8698 -0.8221
   17mR      Rm 3257   1.743   2.402  20.030  0.3832  0.7107  0.0099
   18mB      Bm 3258   2.032   2.710  19.506 -0.9026 -0.6215 -0.3527
   19mA      Am 3259   2.086   3.022  19.317  0.6902  0.3745 -0.7449
   20mB      Bm 3260   2.088   3.399  19.341 -0.5128  0.0432  0.7977
   21mC      Cm 3261   2.062   3.742  19.466  0.6217 -0.0258 -0.1034
   22mC      Cm 3262   2.095   4.037  19.756 -0.4953 -0.8836 -0.7417
   23mR      Rm 3263   1.831   3.974  19.566 -0.1752  0.6767  1.2215
   24mB      Bm 3264   2.201   4.171  20.088  0.7022 -0.7915  0.5014
   25mA      Am 3265   2.237   4.206  20.455  0.1015  0.5738  0.6615
   26mB      Bm 3266   2.147   4.037  20.763  0.3400 -0.0578 -1.1710
   27mC      Cm 3267   2.018   3.797  21.020  0.2463 -0.0792  1.2358
   28mC      Cm 3268   1.923   3.422  21.163 -0.1224  0.1278 -0.6626
   29mR      Rm 3269   1.730   3.701  21.174  0.8448  0.5798 -0.2944
   30mB      Bm 3270   1.894   3.055  21.134 -0.7596 -0.5985 -1.0125
   31mA      Am 3271   1.822   2.724  20.996 -0.2653  0.7350 -0.0810
   32mB      Bm 3272   1.676   2.533  20.725  0.4964  0.3513  0.0232
   33mC      Cm 3273   1.488   2.482  20.409  0.0322 -0.4710  0.0566
   34mC      Cm 3274   1.408   2.540  20.012 -0.8530 -0.3443 -0.0464
   35mR      Rm 3275   1.189   2.487  20.263 -0.1878  0.3675 -0.2148
   36mB      Bm 3276   1.442   2.714  19.685 -0.7293 -0.4661  0.2020
   37mA      Am 3277   1.465   2.975  19.430  0.4158 -0.7484 -1.0854
   38mB      Bm 3278   1.440   3.342  19.394  0.2010 -0.3738 -0.0402
   39mC      Cm 3279   1.403   3.699  19.465 -0.4337  0.7870  0.8918
   40mC      Cm 3280   1.458   4.038  19.691  0.3442  0.4419  0.3641
   41mR      Rm 3281   1.174   3.945  19.534  0.2530 -0.2336  0.3021
   42mB      Bm 3282   1.574   4.218  19.996 -1.0842 -0.0912 -0.4682
   43mA      Am 3283   1.636   4.305  20.350  0.1159 -0.4780 -0.2948
   44mB      Bm 3284   1.571   4.220  20.697 -0.0218 -0.6814 -0.1005
   45mC      Cm 3285   1.436   4.031  20.975 -0.9906  0.1230  0.5150
   46mC      Cm 3286   1.337   3.679  21.181 -0.5629  0.2836 -0.4427
   47mR      Rm 3287   1.154   3.969  21.149  0.2220 -0.8475 -0.0291
   48mB      Bm 3288   1.302   3.312  21.204  0.6036 -0.4490  0.5349
   49mA      Am 3289   1.210   2.957  21.115 -0.0023  0.8842 -0.2625
   50mB      Bm 3290   1.066   2.739  20.850  0.0962  0.1355 -0.2441
   51mC      Cm 3291   0.902   2.612  20.539 -0.0114  0.0050  0.3912
   52mC      Cm 3292   0.827   2.618  20.135  1.2281 -0.2269 -0.0760
   53mR      Rm 3293   0.600   2.569  20.393 -0.1825  1.0397 -0.4658
   54mB      Bm 3294   0.873   2.755  19.790 -1.0958  0.0652 -0.2604
   55mA      Am 3295   0.898   3.019  19.542 -0.3158  0.0609  1.0037
   56mB      Bm 3296   0.893   3.379  19.443 -0.3233  0.1451 -0.2374
   57mC      Cm 3297   0.846   3.749  19.478 -0.0976  0.5028  0.7284
   58mC      Cm 3298   0.877   4.118  19.651 -0.4515  0.4551  0.6551
   59mR      Rm 3299   0.599   3.984  19.520 -0.6286 -0.6123 -0.7633
   60mB      Bm 3300   0.986   4.350  19.918 -0.5967 -0.2878 -0.6360
   61mA      Am 3301   1.031   4.464  20.269  0.3172 -0.5576 -0.2956
   62mB      Bm 3302   0.951   4.377  20.623  0.2881  0.0290  0.3677
   63mC      Cm 3303   0.818   4.192  20.915 -0.4859 -0.0586  0.0710
   64mC      Cm 3304   0.742   3.883  21.167  0.0950 -0.3062 -0.7402
   65mR      Rm 3305   0.554   4.164  21.124  0.5496 -0.0593  0.2460
   66mB      Bm 3306   0.716   3.517  21.222  0.1711  0.2173 -0.8262
   67mA      Am 3307   0.645   3.155  21.155  0.0359  0.7036  0.1480
   68mB      Bm 3308   0.487   2.918  20.925  0.1112 -0.0448  0.0036
   69mC      Cm 3309   0.316   2.762  20.630  0.6614  0.3776  0.4188
   70mC      Cm 3310   0.247   2.774  20.229  0.3501  0.1158 -1.0949
   71mR      Rm 3311   0.012   2.725  20.478 -0.3007  0.2351 -0.2057
   72mB      Bm 3312   0.278   2.892  19.875 -1.4961  0.0117  0.1481
   73mA      Am 3313   0.293   3.109  19.579  0.0607 -0.2443 -0.6514
   74mB      Bm 3314   0.262   3.467  19.472 -0.2610  0.1472 -0.0883
   75mC      Cm 3315   0.214   3.834  19.479  0.3949 -0.5693 -0.7632
   76mC      Cm 3316   0.278   4.208  19.633  0.1356  0.6392  0.1895
   77mR      Rm 3317  -0.005   4.077  19.493  0.2084 -0.3114  0.3626
   78mB      Bm 3318   0.393   4.433  19.904 -0.1863 -0.1200 -0.0625
   79mA      Am 3319   0.443   4.565  20.254  0.0915  0.0094  0.0563
   80mB      Bm 3320   0.382   4.519  20.613  0.5690  0.4018  0.0705
   81mC      Cm 3321   0.251   4.386  20.942 -0.4918 -0.2338  0.4815
   82mC      Cm 3322   0.170   4.072  21.191  1.6762  0.4944 -0.1327
   83mR      Rm 3323  -0.017   4.352  21.147 -0.0046 -0.3319 -0.6962
   84mB      Bm 3324   0.143   3.724  21.288 -0.2907  0.4662 -0.1575
   85mA      Am 3325   0.058   3.365  21.274 -0.4545  0.9354  0.1201
   86mB      Bm 3326  -0.091   3.091  21.080  0.0618  0.2748  0.1634
   87mC      Cm 3327  -0.261   2.922  20.792 -0.1850  0.1296  0.5609
   88mC      Cm 3328  -0.340   2.868  20.401 -0.1067  0.7410 -0.1741
   89mR      Rm 3329  -0.555   2.870  20.662  0.8429 -0.5164  0.7194
   90mB      Bm 3330  -0.309   2.949  20.036  0.0000 -0.1454 -0.0651
   91mA      Am 3331  -0.303   3.140  19.731 -0.5157 -0.6911  0.4348
   92mB      Bm 3332  -0.326   3.463  19.565  0.4526  0.9359 -0.3787
   93mC      Cm 3333  -0.368   3.830  19.515  0.6031 -0.1265  0.2508
   94mC      Cm 3334  -0.318   4.229  19.606 -0.5433  0.4895 -0.0450
   95mR      Rm 3335  -0.593   4.076  19.492 -0.7000 -0.4287 -0.5392
   96mB      Bm 3336  -0.188   4.494  19.828  0.1804 -1.4989 -0.5741
   97mA      Am 3337  -0.131   4.677  20.140 -1.0440  0.0298  0.0510
   98mB      Bm 3338  -0.192   4.700  20.515  0.3477  0.0922  0.0916
   99mC      Cm 3339  -0.311   4.636  20.856 -0.1132  0.0635 -0.6252
  100mC      Cm 3340  -0.395   4.400  21.181  0.0378  0.8992 -0.0560
  101mR      Rm 3341  -0.585   4.658  21.054  0.2857  0.0044 -0.1190
  102mB      Bm 3342  -0.417   4.085  21.377 -0.1046  1.1285  0.6087
  103mA      Am 3343  -0.517   3.734  21.466  0.7319 -0.1685 -0.3324
  104mB      Bm 3344  -0.698   3.429  21.367 -1.0330 -0.2256  0.2783
  105mC      Cm 3345  -0.912   3.185  21.193  0.8123 -0.6596  0.0348
  106mC      Cm 3346  -1.018   3.003  20.846 -0.6218 -0.2674  0.8535
  107mR      Rm 3347  -1.224   3.136  21.082  0.7264 -0.1634 -0.7949
  108tB      Bt 3348  -1.010   2.934  20.479 -0.0398 -0.2212  0.1712
    1hA      Ah 3349  11.102   3.051  18.372  0.0938  0.2733  0.3014
    2mB      Bm 3350  11.113   2.780  18.123 -0.5242 -0.4770  0.4325
    3mC      Cm 3351  11.198   2.468  17.945  0.4283  0.7705  0.0635
    4mC      Cm 3352  11.292   2.075  17.905  0.2128  0.4300  0.2235
    5mR      Rm 3353  11.460   2.337  17.787  0.0779 -0.3652 -1.3159
    6mB      Bm 3354  11.350   1.725  18.053  0.2536 -0.4652 -0.8145
    7mA      Am 3355  11.455   1.433  18.268  0.1859 -0.0498  1.3192
    8mB      Bm 3356  11.636   1.338  18.565 -0.5409 -0.3051 -0.0702
    9mC      Cm 3357  11.860   1.371  18.866  0.8762  0.7929 -0.6465
   10mC      Cm 3358  12.010   1.522  19.213 -0.1450 -0.7519 -0.2569
   11mR      Rm 3359  12.183   1.376  18.966  0.8096  0.2968  0.6499
   12mB      Bm 3360  12.049   1.773  19.491 -0.1528 -0.5060 -0.1300
   13mA      Am 3361  12.068   2.094  19.672 -0.9625  0.2952  0.3519
   14mB      Bm 3362  12.085   2.455  19.665 -0.6072  0.7608 -0.2944
   15mC      Cm 3363  12.093   2.806  19.529  0.3810  0.0045 -0.1339
   16mC      Cm 3364  11.994   3.080  19.244 -0.1082  0.2088  0.2500
   17mR      Rm 3365  12.296   3.041  19.405  0.3944 -0.5772  0.1317
   18mB      Bm 3366  11.820   3.196  18.937 -0.2629  0.1251 -0.1509
   19mA      Am 3367  11.701   3.179  18.592 -0.2095 -0.6490 -0.3940
   20mB      Bm 3368  11.703   2.990  18.266  0.1405 -0.1931  0.2129
   21mC      Cm 3369  11.776   2.743  17.995  0.0140  1.0574  0.3232
   22mC      Cm 3370  11.839   2.359  17.855  0.6317  0.0998  0.0043
   23mR      Rm 3371  12.041   2.632  17.817  0.0779 -0.0318 -0.7851
   24mB      Bm 3372  11.848   1.995  17.890  0.0800 -0.3794  0.3599
   25mA      Am 3373  11.938   1.666  18.042  0.2226 -0.1725  0.5455
   26mB      Bm 3374  12.121   1.491  18.302 -0.3381  0.5080  0.5834
   27mC      Cm 3375  12.365   1.440  18.582 -0.9528  0.7385 -0.5372
   28mC      Cm 3376  12.534   1.520  18.948  0.6580 -0.9232  0.1183
   29mR      Rm 3377  12.692   1.463  18.655  1.0817 -0.4341  0.6082
   30mB      Bm 3378  12.566   1.717  19.268 -0.7888  0.2998 -0.3079
   31mA      Am 3379  12.590   1.994  19.500 -0.1767 -0.1463  0.3182
   32mB      Bm 3380  12.631   2.364  19.507 -0.0449 -0.1781  0.1371
   33mC      Cm 3381  12.692   2.719  19.406 -0.3388 -0.0150  0.3571
   34mC      Cm 3382  12.615   3.052  19.182 -0.1541  0.0042  0.2260
   35mR      Rm 3383  12.916   2.939  19.295  0.7883 -0.9925  0.9190
   36mB      Bm 3384  12.457   3.239  18.892  0.5669  0.3880  0.2409
   37mA      Am 3385  12.333   3.306  18.542  0.1673  0.6057  0.0891
   38mB      Bm 3386  12.309   3.171  18.198 -0.6174 -0.6869  0.6151
   39mC      Cm 3387  12.354   2.944  17.896  0.3609 -0.0334  0.2262
   40mC      Cm 3388  12.413   2.575  17.735  0.2919  0.5681 -0.6717
   41mR      Rm 3389  12.604   2.847  17.694  0.1846 -0.2851  0.5374
   42mB      Bm 3390  12.421   2.205  17.740 -0.0174  0.1943  0.0874
   43mA      Am 3391  12.485   1.846  17.835 -0.0790 -0.4189  0.3030
   44mB      Bm 3392  12.662   1.640  18.079  0.1555 -1.2001 -0.5453
   45mC      Cm 3393  12.887   1.525  18.353 -0.4485 -0.8384  0.3497
   46mC      Cm 3394  13.042   1.562  18.728  0.0157 -0.2961  0.5005
   47mR      Rm 3395  13.211   1.494  18.441 -1.0059  0.1055  0.1296
   48mB      Bm 3396  13.073   1.745  19.040  0.4740  0.3166  0.1282
   49mA      Am 3397  13.117   2.016  19.296 -0.1085  0.5721 -0.5034
   50mB      Bm 3398  13.185   2.374  19.333 -0.3404 -0.4549  0.3527
   51mC      Cm 3399  13.268   2.726  19.260  1.1743 -0.1180 -1.6302
   52mC      Cm 3400  13.209   3.088  19.082  0.6558 -0.2781 -0.1802
   53mR      Rm 3401  13.501   2.934  19.157 -0.5572  0.2387  0.8574
   54mB      Bm 3402  13.057   3.314  18.844  0.3423 -0.8668 -0.4551
   55mA      Am 3403  12.930   3.444  18.518  0.2681  0.5966  0.0364
   56mB      Bm 3404  12.904   3.332  18.165  0.3287 -0.2374 -1.1837
   57mC      Cm 3405  12.956   3.122  17.858 -0.2146  0.8393  0.0390
   58mC      Cm 3406  12.953   2.786  17.635 -0.1562  0.8867  0.5560
   59mR      Rm 3407  13.182   3.034  17.628 -0.3677 -0.6001 -0.1253
   60mB      Bm 3408  12.934   2.409  17.593  0.3709 -0.1475  0.0247
   61mA      Am 3409  12.998   2.044  17.640 -0.0091  0.5662 -0.1826
   62mB      Bm 3410  13.183   1.808  17.855 -0.5770 -1.1309 -0.3533
   63mC      Cm 3411  13.436   1.687  18.104  1.6482  0.4322  0.0297
   64mC      Cm 3412  13.636   1.658  18.460 -1.2929  0.1807  0.1093
   65mR      Rm 3413  13.771   1.649  18.140 -0.2319  0.6125  0.1515
   66mB      Bm 3414  13.692   1.766  18.814  0.7437  0.4775 -0.1051
   67mA      Am 3415  13.773   2.027  19.084 -0.1439 -0.2657 -0.0846
   68mB      Bm 3416  13.845   2.379  19.175 -0.4950 -0.2904  0.0734
   69mC      Cm 3417  13.904   2.740  19.143 -0.1104  0.0888 -0.5825
   70mC      Cm 3418  13.830   3.109  18.992  0.1264  0.5058 -0.5391
   71mR      Rm 3419  14.130   2.972  19.061  1.1181 -0.5967  0.1938
   72mB      Bm 3420  13.667   3.343  18.767 -0.5477  0.2986 -0.1938
   73mA      Am 3421  13.540   3.485  18.451 -0.3426 -0.2893  0.3680
   74mB      Bm 3422  13.495   3.462  18.076  0.0571 -0.4034  0.3568
   75mC      Cm 3423  13.525   3.306  17.743 -1.0595 -0.0348 -0.2077
   76mC      Cm 3424  13.539   2.994  17.488  0.3877  0.6707 -0.4077
   77mR      Rm 3425  13.759   3.243  17.505 -1.1283 -1.2994 -0.7384
   78mB      Bm 3426  13.506   2.629  17.410 -0.4296 -0.0984  0.7397
   79mA      Am 3427  13.553   2.264  17.440 -0.3569  0.0762  0.0906
   80mB      Bm 3428  13.738   2.005  17.621  0.3208 -0.6230 -0.3987
   81mC      Cm 3429  13.975   1.810  17.845  0.3001 -0.7240  0.5464
   82mC      Cm 3430  14.139   1.740  18.211 -0.2974  1.0028 -1.1208
   83mR      Rm 3431  14.290   1.741  17.915 -0.7526 -0.4424  0.0204
   84mB      Bm 3432  14.221   1.834  18.561  0.5419 -0.4271  0.5486
   85mA      Am 3433  14.318   2.033  18.860  0.1994 -0.1018  0.2304
   86mB      Bm 3434  14.386   2.376  19.005 -0.2371 -0.2390 -0.1576
   87mC      Cm 3435  14.456   2.747  19.016  0.0300 -0.3421  0.6192
   88mC      Cm 3436  14.458   3.138  18.893 -0.5338  0.4056  0.4081
   89mR      Rm 3437  14.722   2.940  18.925 -1.0531 -0.5338  0.4533
   90mB      Bm 3438  14.342   3.421  18.695  0.4010  0.0664 -0.3473
   91mA      Am 3439  14.227   3.622  18.405  1.0491 -0.0949  0.0085
   92mB      Bm 3440  14.167   3.651  18.040 -0.0226 -0.3253 -0.3321
   93mC      Cm 3441  14.181   3.553  17.682  0.5764  0.0789  0.6778
   94mC      Cm 3442  14.133   3.285  17.371 -0.0062  0.2230 -0.9601
   95mR      Rm 3443  14.384   3.509  17.412 -0.3533 -0.3249  0.6016
   96mB      Bm 3444  14.052   2.947  17.224  0.8128 -0.0866  0.4562
   97mA      Am 3445  14.070   2.582  17.183 -0.1638  0.2297 -0.1948
   98mB      Bm 3446  14.214   2.267  17.301  0.7212 -0.1188 -0.0500
   99mC      Cm 3447  14.440   2.053  17.500 -0.1496  0.8850 -1.2152
  100mC      Cm 3448  14.630   1.924  17.838  0.7673 -0.6031 -0.2753
  101mR      Rm 3449  14.767   1.977  17.535  0.9540  0.0598 -0.9142
  102mB      Bm 3450  14.701   1.940  18.191 -0.2522 -0.7517  0.1370
  103mA      Am 3451  14.789   2.068  18.533 -0.7638 -0.8922 -0.1489
  104mB      Bm 3452  14.906   2.351  18.742  0.1656  0.5101  0.5244
  105mC      Cm 3453  15.019   2.694  18.820  0.5137 -0.7234 -0.5266
  106mC      Cm 3454  15.018   3.106  18.800 -0.4098  0.7334  0.1019
  107mR      Rm 3455  15.290   2.906  18.784  1.3056  0.5289 -0.1557
  108tB      Bt 3456  14.890   3.454  18.740  0.2806 -0.3915 -0.3004
    1hA      Ah 3457   9.444   1.421  15.472 -0.0144  0.2538 -0.5742
    2mB      Bm 3458   9.558   1.281  15.147 -0.4883  0.3381  0.6188
    3mC      Cm 3459   9.598   1.062  14.849  0.3005  0.3803 -0.8626
    4mC      Cm 3460   9.458   0.838  14.532 -0.1473 -0.5665 -0.3284
    5mR      Rm 3461   9.704   0.761  14.754  0.6920 -0.3452  0.3336
    6mB      Bm 3462   9.205   0.705  14.288 -0.5555  0.5877 -0.0155
    7mA      Am 3463   8.901   0.543  14.150  0.0927 -0.2623  0.0194
    8mB      Bm 3464   8.580   0.393  14.226 -0.7209  0.7462 -0.3528
    9mC      Cm 3465   8.291   0.266  14.416  0.8317 -0.6059 -1.2585
   10mC      Cm 3466   7.977   0.256  14.676  0.0280  0.9585  0.4794
   11mR      Rm 3467   8.188   0.002  14.598  0.3545  0.8299 -0.0762
   12mB      Bm 3468   7.739   0.394  14.918 -0.4131 -0.8135  0.2868
   13mA      Am 3469   7.585   0.550  15.213  0.2321  0.2690  0.4475
   14mB      Bm 3470   7.613   0.713  15.548  0.2846 -0.0084 -0.2272
   15mC      Cm 3471   7.757   0.847  15.861  0.6778 -0.4051 -0.2936
   16mC      Cm 3472   8.034   1.061  16.086 -0.0623 -0.1608 -0.1396
   17mR      Rm 3473   7.883   0.769  16.165 -0.3634  0.4770 -1.2965
   18mB      Bm 3474   8.333   1.274  16.134 -0.2239 -0.0102  0.0827
   19mA      Am 3475   8.680   1.419  16.122  0.2528 -0.2037  0.0397
   20mB      Bm 3476   9.023   1.346  15.991  0.0278  0.1893  0.0791
   21mC      Cm 3477   9.313   1.178  15.819 -0.0266  0.6688  0.0308
   22mC      Cm 3478   9.465   0.927  15.532  0.2852 -0.0993 -0.6743
   23mR      Rm 3479   9.519   0.914  15.868 -0.3001  0.2256 -0.0167
   24mB      Bm 3480   9.490   0.717  15.232  0.4616 -0.4973  0.5839
   25mA      Am 3481   9.429   0.430  14.991 -0.8134 -0.2274  0.0666
   26mB      Bm 3482   9.255   0.109  14.920  0.3399  1.0146 -0.6267
   27mC      Cm 3483   9.045  -0.196  14.952  0.2360 -0.1524 -0.4628
   28mC      Cm 3484   8.724  -0.405  15.106 -1.0107  0.0486  0.2709
   29mR      Rm 3485   9.047  -0.506  15.093 -0.0242 -0.1884  1.0101
   30mB      Bm 3486   8.417  -0.450  15.304 -0.1728  0.0389 -0.3619
   31mA      Am 3487   8.210  -0.447  15.597  0.3888  0.3543  0.5022
   32mB      Bm 3488   8.198  -0.342  15.960 -0.5571 -0.5615  0.4512
   33mC      Cm 3489   8.294  -0.206  16.288  0.2768 -0.8965  0.5476
   34mC      Cm 3490   8.473   0.073  16.542 -0.2487  0.6094  0.3233
   35mR      Rm 3491   8.479  -0.271  16.561  0.2054 -0.9677 -0.2410
   36mB      Bm 3492   8.667   0.373  16.627 -0.6335  0.9234  0.0992
   37mA      Am 3493   8.931   0.634  16.624  0.1096 -0.9227  0.5784
   38mB      Bm 3494   9.260   0.756  16.501 -0.2128  0.1056 -0.2964
   39mC      Cm 3495   9.575   0.743  16.315 -0.2138 -0.3737  0.1627
   40mC      Cm 3496   9.811   0.648  15.988  0.7127 -0.2977 -0.3440
   41mR      Rm 3497   9.886   0.613  16.316  0.7717  1.0249 -1.0932
   42mB      Bm 3498   9.876   0.524  15.642 -0.1108  0.2835  0.3924
   43mA      Am 3499   9.895   0.292  15.354  0.9038 -0.2779  0.1530
   44mB      Bm 3500   9.821  -0.046  15.233 -0.1627  0.7622 -0.1688
   45mC      Cm 3501   9.710  -0.404  15.225 -0.4009  0.2045  0.2055
   46mC      Cm 3502   9.475  -0.722  15.306  0.3930  0.0517 -0.0615
   47mR      Rm 3503   9.816  -0.717  15.295  1.0663 -1.0926  0.0072
   48mB      Bm 3504   9.190  -0.889  15.466  0.2049 -0.2734 -0.1721
   49mA      Am 3505   8.944  -1.018  15.708  0.1835 -0.5440  0.4142
   50mB      Bm 3506   8.850  -1.056  16.061 -0.3907  0.6132 -0.3838
   51mC      Cm 3507   8.840  -1.048  16.435  0.6594 -0.6753 -0.8646
   52mC      Cm 3508   8.863  -0.867  16.799 -0.3225  0.1196 -0.5192
   53mR      Rm 3509   9.012  -1.148  16.713  1.0566 -0.3767  1.0087
   54mB      Bm 3510   8.923  -0.585  17.036 -0.0435  0.2850  0.3948
   55mA      Am 3511   9.086  -0.287  17.189 -0.3592  0.6128  0.0614
   56mB      Bm 3512   9.394  -0.064  17.214 -0.8283  0.1108  0.4074
   57mC      Cm 3513   9.722   0.076  17.152 -0.1015 -0.7766  0.3219
   58mC      Cm 3514  10.010   0.237  16.907 -0.2683 -0.0358  0.1222
   59mR      Rm 3515  10.055   0.017  17.169  0.4836 -0.0438 -0.4082
   60mB      Bm 3516  10.181   0.326  16.590 -0.0595  0.7513  0.7690
   61mA      Am 3517  10.344   0.299  16.262 -0.1994  0.1313 -0.5624
   62mB      Bm 3518  10.444   0.061  15.994 -0.1106 -0.9025  1.0313
   63mC      Cm 3519  10.507  -0.261  15.826  0.0982  0.7854 -0.0373
   64mC      Cm 3520  10.428  -0.648  15.712  0.0494 -0.2854 -0.0365
   65mR      Rm 3521  10.725  -0.514  15.800 -0.2013  1.0796  0.6701
   66mB      Bm 3522  10.222  -0.950  15.734  0.1603  0.4681  0.2742
   67mA      Am 3523  10.028  -1.243  15.848  0.0451 -0.6972 -0.5418
   68mB      Bm 3524   9.916  -1.458  16.129 -1.1740  0.4947 -0.5435
   69mC      Cm 3525   9.874  -1.590  16.477  0.5377 -0.2815  0.0549
   70mC      Cm 3526   9.779  -1.584  16.875  0.0274  0.0669 -0.5259
   71mR      Rm 3527  10.039  -1.750  16.726 -0.9683  0.2012  0.2816
   72mB      Bm 3528   9.642  -1.426  17.191  0.1602  0.0322 -0.1367
   73mA      Am 3529   9.589  -1.202  17.475 -0.8397 -0.6776 -0.2017
   74mB      Bm 3530   9.714  -0.917  17.686  0.1222  0.3412 -0.1848
   75mC      Cm 3531   9.910  -0.632  17.823  0.9150 -0.1843  0.3509
   76mC      Cm 3532  10.084  -0.263  17.838  0.5103  1.1536 -0.1218
   77mR      Rm 3533  10.197  -0.551  17.979  0.2567 -0.3054  0.5816
   78mB      Bm 3534  10.191   0.040  17.659 -0.1326  0.3696 -0.6760
   79mA      Am 3535  10.338   0.252  17.394 -0.1063 -0.2770  0.2907
   80mB      Bm 3536  10.509   0.271  17.062  0.4094 -0.2710  0.2499
   81mC      Cm 3537  10.684   0.145  16.752 -0.4071 -0.5084  0.1256
   82mC      Cm 3538  10.724  -0.122  16.447 -1.3749  0.0400  0.0576
   83mR      Rm 3539  10.974   0.008  16.630  0.0036 -1.0675  0.0387
   84mB      Bm 3540  10.634  -0.431  16.248  0.3936  0.4983 -0.0207
   85mA      Am 3541  10.560  -0.777  16.178  0.0400  0.2620  0.3550
   86mB      Bm 3542  10.515  -1.119  16.317  0.4254 -0.2576  0.0315
   87mC      Cm 3543  10.502  -1.406  16.549 -0.1695  1.6125  0.1020
   88mC      Cm 3544  10.392  -1.613  16.879  0.0488  0.4405 -0.0646
   89mR      Rm 3545  10.701  -1.595  16.735  0.6794 -0.9853 -0.4902
   90mB      Bm 3546  10.201  -1.657  17.193  0.3633 -0.0876 -0.3430
   91mA      Am 3547  10.063  -1.596  17.527 -0.5590 -0.2453 -0.9432
   92mB      Bm 3548   9.989  -1.389  17.822  0.4684 -0.8882 -0.0603
   93mC      Cm 3549   9.982  -1.096  18.057  0.4558  0.3953  0.2478
   94mC      Cm 3550   9.904  -0.715  18.183 -0.8109 -1.2200 -0.0106
   95mR      Rm 3551  10.183  -0.894  18.234  0.0942  0.0743 -0.1282
   96mB      Bm 3552   9.748  -0.373  18.164 -0.4186  0.5566  0.2038
   97mA      Am 3553   9.661  -0.044  18.026  0.0475  0.1912 -0.4478
   98mB      Bm 3554   9.663   0.197  17.742 -0.9191  0.6087 -0.0805
   99mC      Cm 3555   9.705   0.343  17.405 -0.0514 -0.2932 -0.9102
  100mC      Cm 3556   9.677   0.384  16.995 -0.4471  0.6668  0.0850
  101mR      Rm 3557   9.948   0.444  17.190  0.4664  0.4830  0.3749
  102mB      Bm 3558   9.575   0.244  16.659 -0.4369  0.2968  0.3175
  103mA      Am 3559   9.519   0.008  16.377 -0.0864  0.0681 -0.4360
  104mB      Bm 3560   9.556  -0.329  16.238  0.1159  0.6370 -0.2116
  105mC      Cm 3561   9.639  -0.685  16.210  0.1999 -0.4718  0.2159
  106mC      Cm 3562   9.605  -1.072  16.338 -0.1665  0.1585 -0.6095
  107mR      Rm 3563   9.876  -0.924  16.201 -0.5762  0.8072  0.3518
  108tB      Bt 3564   9.485  -1.342  16.566 -0.6122 -0.8000  0.7388
    1hA      Ah 3565   3.103   6.850  27.350  0.1915 -0.6208  0.0663
    2mB      Bm 3566   2.983   6.506  27.292 -0.1003 -0.0478  0.3273
    3mC      Cm 3567   2.967   6.145  27.202 -0.2777  0.2598  1.0190
    4mC      Cm 3568   3.070   5.756  27.232 -0.0136 -0.1747  0.1455
    5mR      Rm 3569   3.045   5.936  26.951 -0.3154 -0.3528  0.2199
    6mB      Bm 3570   3.245   5.458  27.384  0.2520  0.2183 -0.0451
    7mA      Am 3571   3.513   5.250  27.516 -0.0916  0.2842 -0.3354
    8mB      Bm 3572   3.879   5.206  27.587  0.1563  0.4784  0.3032
    9mC      Cm 3573   4.241   5.244  27.616 -0.9601  1.3143 -0.1618
   10mC      Cm 3574   4.585   5.438  27.715  0.2149  0.4946  0.7998
   11mR      Rm 3575   4.532   5.264  27.429 -0.3107 -1.0524  0.3713
   12mB      Bm 3576   4.768   5.730  27.840  0.4341 -0.0969  0.0687
   13mA      Am 3577   4.879   6.084  27.903 -0.2064  0.4308 -0.0242
   14mB      Bm 3578   4.816   6.443  27.838 -0.4610 -0.4182  1.0963
   15mC      Cm 3579   4.692   6.757  27.690  0.8133 -0.1717  1.0451
   16mC      Cm 3580   4.403   6.988  27.530  0.6311  0.4134 -0.3785
   17mR      Rm 3581   4.720   6.959  27.417  0.0667  1.0917 -0.5736
   18mB      Bm 3582   4.063   7.048  27.393  1.0606 -0.2691  0.7821
   19mA      Am 3583   3.736   6.994  27.223 -0.1669  0.7774 -0.5849
   20mB      Bm 3584   3.527   6.761  27.046 -0.2174 -0.5134 -0.4284
   21mC      Cm 3585   3.416   6.472  26.863 -0.0786  1.0183  0.8846
   22mC      Cm 3586   3.428   6.080  26.765 -0.4632 -1.2423  0.3839
   23mR      Rm 3587   3.480   6.336  26.558  0.0923  1.1088 -0.0898
   24mB      Bm 3588   3.509   5.717  26.811 -0.1823  0.3915  0.7459
   25mA      Am 3589   3.697   5.402  26.887 -0.6317 -0.6852 -0.3503
   26mB      Bm 3590   4.026   5.236  26.960 -0.2532 -1.1706 -0.3678
   27mC      Cm 3591   4.394   5.184  27.008 -0.8826 -0.3275  0.5221
   28mC      Cm 3592   4.760   5.317  27.154 -0.0638  0.0595  0.4495
   29mR      Rm 3593   4.690   5.196  26.838  0.7155 -0.0700 -0.7894
   30mB      Bm 3594   4.974   5.564  27.318 -0.0377  0.8327  0.3362
   31mA      Am 3595   5.144   5.886  27.423 -0.0817  0.1039  0.1464
   32mB      Bm 3596   5.161   6.243  27.341  0.0097  0.4668  0.3553
   33mC      Cm 3597   5.074   6.560  27.166 -0.3179  0.2119 -0.3997
   34mC      Cm 3598   4.812   6.828  27.014 -0.8758  0.7404  0.1178
   35mR      Rm 3599   5.129   6.768  26.909  0.2416 -0.0560 -0.6019
   36mB      Bm 3600   4.472   6.944  26.900 -0.6281  0.3993  0.7680
   37mA      Am 3601   4.133   6.938  26.735  0.1199 -0.1024  0.7173
   38mB      Bm 3602   3.915   6.735  26.517  0.5048  0.0439  0.0307
   39mC      Cm 3603   3.795   6.446  26.299 -0.1422  0.0063 -0.1144
   40mC      Cm 3604   3.760   6.048  26.226  0.5135  1.0713  0.7675
   41mR      Rm 3605   3.806   6.293  25.994 -0.4016 -1.6695 -0.0248
   42mB      Bm 3606   3.796   5.683  26.298 -0.5613 -0.1520 -0.4578
   43mA      Am 3607   3.940   5.354  26.383  0.4877 -0.1715  0.5378
   44mB      Bm 3608   4.270   5.173  26.435  0.1761  0.1863  0.2284
   45mC      Cm 3609   4.638   5.118  26.456 -0.6271 -1.1181  0.8889
   46mC      Cm 3610   5.012   5.238  26.554  0.6020 -0.0149 -0.4264
   47mR      Rm 3611   4.925   5.100  26.261 -1.1566 -0.1406 -1.2183
   48mB      Bm 3612   5.264   5.462  26.719  0.2009  0.1454  1.4517
   49mA      Am 3613   5.439   5.767  26.805 -0.1403  0.2371  0.3251
   50mB      Bm 3614   5.492   6.132  26.773  0.2744 -0.1191  0.3915
   51mC      Cm 3615   5.447   6.477  26.659 -0.0543  0.3669 -0.2763
   52mC      Cm 3616   5.235   6.806  26.525 -1.3632 -0.4968  0.4002
   53mR      Rm 3617   5.520   6.686  26.396 -0.0179 -0.6720  0.1501
   54mB      Bm 3618   4.917   6.970  26.418  0.8744 -0.5435  0.3215
   55mA      Am 3619   4.590   7.034  26.271 -0.3497  0.4492 -0.8269
   56mB      Bm 3620   4.325   6.881  26.063 -0.3931 -1.1392 -0.4361
   57mC      Cm 3621   4.132   6.653  25.840 -0.3434  1.8655 -0.7046
   58mC      Cm 3622   4.013   6.285  25.701 -0.3078 -1.0949  0.3508
   59mR      Rm 3623   4.133   6.546  25.523  0.8384  0.6808 -1.8967
   60mB      Bm 3624   3.965   5.913  25.708 -0.0792  0.3764  1.6302
   61mA      Am 3625   4.058   5.549  25.730  0.1641 -0.4537  0.0549
   62mB      Bm 3626   4.330   5.299  25.766 -0.1962 -0.1599  0.2899
   63mC      Cm 3627   4.678   5.174  25.772 -0.7218  0.4549 -1.3013
   64mC      Cm 3628   5.073   5.168  25.885  0.4666  0.5386 -1.2290
   65mR      Rm 3629   4.946   5.100  25.582  0.3078 -0.2500 -0.0665
   66mB      Bm 3630   5.364   5.320  26.060 -0.2722  0.3621 -0.0852
   67mA      Am 3631   5.617   5.555  26.190 -0.2101 -0.6845  0.5467
   68mB      Bm 3632   5.754   5.899  26.206 -0.9045  0.2472  0.3211
   69mC      Cm 3633   5.788   6.252  26.127 -0.3782 -0.5192  0.1692
   70mC      Cm 3634   5.618   6.612  26.040  0.7409 -0.1404  0.1258
   71mR      Rm 3635   5.907   6.477  25.916  1.1308 -1.1027 -0.2958
   72mB      Bm 3636   5.316   6.817  25.960 -1.2223 -0.0487  0.5863
   73mA      Am 3637   4.983   6.931  25.832  0.3338 -0.5368  0.0846
   74mB      Bm 3638   4.696   6.865  25.601 -0.0281  0.7423  0.3340
   75mC      Cm 3639   4.470   6.720  25.342 -0.2201  0.7324  0.4550
   76mC      Cm 3640   4.279   6.411  25.154  0.6071 -0.2457 -0.3615
   77mR      Rm 3641   4.439   6.676  25.004 -1.0142  0.1952  0.6801
   78mB      Bm 3642   4.215   6.042  25.101 -0.0138  0.0536  0.0532
   79mA      Am 3643   4.272   5.669  25.066 -0.4962  0.2166 -0.3022
   80mB      Bm 3644   4.521   5.380  25.064  0.1452 -0.0995  0.5291
   81mC      Cm 3645   4.848   5.203  25.086 -0.3128  0.5385  0.6170
   82mC      Cm 3646   5.217   5.171  25.247  0.7286  0.8616  0.8940
   83mR      Rm 3647   5.130   5.180  24.912 -0.7268  0.8876 -0.5038
   84mB      Bm 3648   5.489   5.281  25.472  0.3385  0.5737  0.2469
   85mA      Am 3649   5.703   5.512  25.650  0.0216 -0.6226 -0.7337
   86mB      Bm 3650   5.837   5.856  25.660 -1.1777 -0.3036  0.5911
   87mC      Cm 3651   5.901   6.208  25.572  0.6757 -0.4809  0.1420
   88mC      Cm 3652   5.771   6.588  25.473 -0.5496 -0.1554 -0.5187
   89mR      Rm 3653   6.018   6.413  25.326 -0.2061 -0.8288  1.7030
   90mB      Bm 3654   5.507   6.843  25.406  0.5759 -0.2766 -0.0965
   91mA      Am 3655   5.201   7.024  25.272  0.4916 -0.0601  0.4132
   92mB      Bm 3656   4.908   7.002  25.044 -0.8109  0.8551 -0.7599
   93mC      Cm 3657   4.695   6.844  24.780  0.5676 -0.2190 -0.7743
   94mC      Cm 3658   4.484   6.541  24.602 -0.8865 -0.4773 -0.1699
   95mR      Rm 3659   4.681   6.760  24.453  0.1670  0.6860 -0.5695
   96mB      Bm 3660   4.391   6.182  24.565  0.1628 -0.1077 -0.8235
   97mA      Am 3661   4.413   5.816  24.540 -0.5382  0.3434  1.4230
   98mB      Bm 3662   4.626   5.514  24.516  0.6196 -0.3051 -0.1252
   99mC      Cm 3663   4.934   5.306  24.496 -0.4179 -0.7624  0.7188
  100mC      Cm 3664   5.319   5.271  24.623 -0.1995  0.5043 -0.3161
  101mR      Rm 3665   5.213   5.246  24.309  0.7980 -0.3902  1.8181
  102mB      Bm 3666   5.614   5.359  24.829 -0.3144  0.8994  0.4158
  103mA      Am 3667   5.888   5.541  24.981 -0.1846  0.5533  0.0978
  104mB      Bm 3668   6.058   5.862  25.029 -0.1486 -0.1455 -0.2478
  105mC      Cm 3669   6.168   6.221  25.008  0.0719 -0.5813  0.2448
  106mC      Cm 3670   6.125   6.632  24.991 -0.2434  1.2827  0.4559
  107mR      Rm 3671   6.323   6.439  24.796 -1.3225 -0.1016 -1.2331
  108tB      Bt 3672   6.084   6.974  25.143 -0.4452 -0.7645 -0.0270
    1hA      Ah 3673   0.404   8.136  29.569 -0.2608 -0.1417  0.6126
    2mB      Bm 3674   0.484   8.254  29.920 -0.8601  0.4072  0.8674
    3mC      Cm 3675   0.600   8.284  30.277  0.3221 -0.6837 -1.1625
    4mC      Cm 3676   0.888   8.268  30.561 -0.4100  0.8000  0.8360
    5mR      Rm 3677   0.570   8.159  30.584 -0.7383  0.4844 -1.4889
    6mB      Bm 3678   1.242   8.234  30.689  0.5218 -0.9175  0.1389
    7mA      Am 3679   1.581   8.118  30.758 -0.0928 -0.1733 -0.3947
    8mB      Bm 3680   1.818   7.828  30.733  1.3017 -1.3239  0.4953
    9mC      Cm 3681   1.932   7.488  30.638  0.7723  1.2515 -0.2850
   10mC      Cm 3682   1.950   7.190  30.352 -1.0046 -0.0833  0.6805
   11mR      Rm 3683   1.869   7.151  30.679 -0.6494 -0.2375  1.0316
   12mB      Bm 3684   1.898   7.051  30.019  0.3638  0.0609 -0.2428
   13mA      Am 3685   1.762   6.938  29.689 -0.2328 -0.2261  0.4267
   14mB      Bm 3686   1.462   6.909  29.463 -0.1268  0.8015 -0.8251
   15mC      Cm 3687   1.112   6.948  29.361  0.9910 -0.3574  0.3220
   16mC      Cm 3688   0.749   7.140  29.326 -0.4146 -0.2355 -0.2031
   17mR      Rm 3689   0.798   6.820  29.429 -0.1130  0.5133  0.0422
   18mB      Bm 3690   0.520   7.409  29.375  0.2392  0.7174 -0.3750
   19mA      Am 3691   0.287   7.657  29.523  0.4715  0.9288 -0.4853
   20mB      Bm 3692   0.152   7.756  29.849 -0.2656 -0.7163  0.0039
   21mC      Cm 3693   0.099   7.778  30.217  0.1958 -0.1133 -0.9227
   22mC      Cm 3694   0.198   7.799  30.611 -0.0673 -0.1104  0.8867
   23mR      Rm 3695  -0.042   7.610  30.467  0.1912 -0.0967 -0.8668
   24mB      Bm 3696   0.421   7.794  30.902  0.7847 -0.0290 -0.7466
   25mA      Am 3697   0.704   7.680  31.111 -0.2918  0.5136 -0.3594
   26mB      Bm 3698   0.989   7.450  31.159 -0.2699 -0.8956  0.8363
   27mC      Cm 3699   1.206   7.158  31.091  0.3245  1.7058 -0.0920
   28mC      Cm 3700   1.385   6.910  30.821  0.2300 -0.7632 -0.5855
   29mR      Rm 3701   1.201   6.816  31.093  0.4587  0.6807  0.6208
   30mB      Bm 3702   1.482   6.797  30.478  0.2940 -0.2360 -0.2106
   31mA      Am 3703   1.479   6.672  30.136  0.3767 -0.1222  0.0967
   32mB      Bm 3704   1.210   6.588  29.886  0.3917  0.3039  0.2327
   33mC      Cm 3705   0.870   6.551  29.734 -0.4513 -0.2079 -0.7155
   34mC      Cm 3706   0.495   6.674  29.614 -0.0454  0.3030  0.6332
   35mR      Rm 3707   0.587   6.371  29.740  0.0609 -0.9531 -0.8020
   36mB      Bm 3708   0.193   6.881  29.590  1.0404  0.2105 -0.7267
   37mA      Am 3709  -0.098   7.102  29.694 -0.4867 -1.1429 -1.3029
   38mB      Bm 3710  -0.297   7.268  29.955  0.1356  0.0120 -0.7895
   39mC      Cm 3711  -0.420   7.355  30.307 -0.2468  0.1271  0.3321
   40mC      Cm 3712  -0.346   7.421  30.704 -1.2661  0.1462 -1.1468
   41mR      Rm 3713  -0.590   7.230  30.571 -0.6905  0.1623 -1.1067
   42mB      Bm 3714  -0.127   7.471  31.001  0.4296  0.4264  0.1315
   43mA      Am 3715   0.149   7.385  31.244  0.1712  0.3219  0.2671
   44mB      Bm 3716   0.411   7.139  31.321  0.6631 -0.7308  0.3117
   45mC      Cm 3717   0.625   6.843  31.324 -0.0163  0.5151 -0.5338
   46mC      Cm 3718   0.850   6.568  31.131 -0.5023  0.0282 -0.0284
   47mR      Rm 3719   0.638   6.516  31.389 -0.2067 -0.4425 -1.1326
   48mB      Bm 3720   1.008   6.399  30.833 -0.5272  0.0150 -0.3687
   49mA      Am 3721   1.048   6.226  30.503  1.1744 -1.0027  0.6553
   50mB      Bm 3722   0.881   6.095  30.191 -0.8825 -0.0549  0.2968
   51mC      Cm 3723   0.598   6.041  29.966  0.2281  0.0880  0.6970
   52mC      Cm 3724   0.248   6.136  29.773  0.4891 -0.8944 -0.7558
   53mR      Rm 3725   0.343   5.830  29.889  1.2145 -0.3541  0.6284
   54mB      Bm 3726  -0.038   6.374  29.764  0.3893  0.5175 -0.5830
   55mA      Am 3727  -0.314   6.600  29.889 -0.6885  0.4385  0.3730
   56mB      Bm 3728  -0.501   6.756  30.171  0.2329  0.7160  0.1572
   57mC      Cm 3729  -0.626   6.852  30.508 -0.1530 -0.9872 -0.1630
   58mC      Cm 3730  -0.575   6.966  30.898  0.1040  0.2824  0.0721
   59mR      Rm 3731  -0.818   6.775  30.771 -0.1169  0.2666 -1.2945
   60mB      Bm 3732  -0.378   7.033  31.205  0.1664  0.3189 -0.5496
   61mA      Am 3733  -0.136   6.987  31.480  0.5709 -0.9861  1.5894
   62mB      Bm 3734   0.099   6.744  31.628  0.5739  0.4610 -0.0589
   63mC      Cm 3735   0.304   6.429  31.685  0.0893 -0.2519  0.4304
   64mC      Cm 3736   0.535   6.130  31.549 -0.6252  1.4184 -0.0786
   65mR      Rm 3737   0.303   6.097  31.782 -1.3453 -0.2072 -0.1855
   66mB      Bm 3738   0.723   5.947  31.274  0.5301  0.0905  1.1831
   67mA      Am 3739   0.785   5.751  30.966 -0.3877  0.3659 -0.3846
   68mB      Bm 3740   0.646   5.602  30.658  0.1208 -0.4171 -1.0743
   69mC      Cm 3741   0.402   5.501  30.406 -0.8931  0.6140 -0.7531
   70mC      Cm 3742   0.061   5.545  30.183 -1.1027 -0.3133 -0.3397
   71mR      Rm 3743   0.172   5.266  30.327  0.5289 -0.3288 -0.6214
   72mB      Bm 3744  -0.242   5.725  30.065 -0.6805  0.7965  0.4925
   73mA      Am 3745  -0.565   5.907  30.062  0.1736 -0.0943 -0.6869
   74mB      Bm 3746  -0.837   6.047  30.265  0.3794 -1.4033 -0.3527
   75mC      Cm 3747  -1.036   6.137  30.565 -0.2952 -0.0622 -0.3075
   76mC      Cm 3748  -1.068   6.295  30.940 -0.2403 -1.1761 -0.6445
   77mR      Rm 3749  -1.241   6.033  30.821  0.5371 -0.5058  0.3877
   78mB      Bm 3750  -0.936   6.407  31.269 -0.2236 -0.1089 -0.4099
   79mA      Am 3751  -0.761   6.420  31.586  0.0496  0.0314  0.4603
   80mB      Bm 3752  -0.543   6.234  31.827  0.1876  0.9150  0.8273
   81mC      Cm 3753  -0.334   5.961  31.963 -0.5581 -0.2895  0.6190
   82mC      Cm 3754  -0.065   5.656  31.959  0.1160 -0.3995  0.6134
   83mR      Rm 3755  -0.341   5.681  32.146 -0.9348 -0.4345  1.4149
   84mB      Bm 3756   0.168   5.405  31.825  0.3479  0.6932 -0.1504
   85mA      Am 3757   0.336   5.135  31.649 -1.2236 -1.4512 -0.0872
   86mB      Bm 3758   0.298   4.875  31.393  0.8744  0.1005 -0.2431
   87mC      Cm 3759   0.161   4.647  31.130 -0.3612 -0.2848  0.3758
   88mC      Cm 3760  -0.069   4.550  30.811 -0.6634  0.9827  1.1215
   89mR      Rm 3761  -0.015   4.363  31.085 -0.3266 -0.8683 -1.4833
   90mB      Bm 3762  -0.326   4.589  30.537 -0.1626  0.1254 -0.1382
   91mA      Am 3763  -0.640   4.678  30.375 -0.7017  0.6064  0.1854
   92mB      Bm 3764  -0.975   4.839  30.371  0.3236 -0.4652 -0.2737
   93mC      Cm 3765  -1.293   5.014  30.473  0.7506 -0.4012 -0.1350
   94mC      Cm 3766  -1.532   5.256  30.696 -0.5313  0.0608  0.5455
   95mR      Rm 3767  -1.604   4.950  30.601  0.7858  0.8446 -0.7683
   96mB      Bm 3768  -1.602   5.522  30.940 -0.3715 -0.2250  0.3623
   97mA      Am 3769  -1.617   5.732  31.251  0.0076  0.4609  0.4519
   98mB      Bm 3770  -1.535   5.779  31.598 -0.0217  0.7502 -0.7062
   99mC      Cm 3771  -1.388   5.732  31.933 -0.0061 -0.9489  0.9532
  100mC      Cm 3772  -1.085   5.635  32.195  0.2693  0.4257 -0.9550
  101mR      Rm 3773  -1.421   5.562  32.231  0.7158  0.0506 -2.0696
  102mB      Bm 3774  -0.750   5.519  32.285  0.4506 -0.0842 -0.4539
  103mA      Am 3775  -0.447   5.314  32.291 -0.6633 -0.9454 -0.4877
  104mB      Bm 3776  -0.238   5.015  32.200 -0.0693  0.0433 -0.0393
  105mC      Cm 3777  -0.145   4.688  32.068  0.6169 -0.3930 -0.9985
  106mC      Cm 3778  -0.196   4.403  31.773 -0.1896  0.4989 -0.4870
  107mR      Rm 3779  -0.210   4.353  32.107  0.1966 -0.5578  0.8901
  108tB      Bt 3780  -0.319   4.285  31.446 -0.1531  0.2027 -1.0725
    1hA      Ah 3781   1.570  11.248  12.818 -0.0747  0.4033 -0.3784
    2mB      Bm 3782   1.346  11.485  12.972  0.6704  0.2125 -0.0170
    3mC      Cm 3783   1.190  11.711  13.220 -0.6036  0.1958 -0.3607
    4mC      Cm 3784   1.162  12.015  13.504  0.4400  0.5122  0.2548
    5mR      Rm 3785   1.020  11.711  13.518  1.0483  0.6212 -0.7113
    6mB      Bm 3786   1.284  12.290  13.709 -0.5880 -0.2197 -0.5044
    7mA      Am 3787   1.502  12.476  13.955 -0.0249 -0.6093 -0.4551
    8mB      Bm 3788   1.792  12.508  14.204  0.4577 -0.2200 -0.1946
    9mC      Cm 3789   2.088  12.397  14.393 -0.2298  0.5053 -0.1980
   10mC      Cm 3790   2.434  12.190  14.405  0.9969 -0.4412 -0.1712
   11mR      Rm 3791   2.195  12.185  14.637 -0.4319 -0.2108 -1.4970
   12mB      Bm 3792   2.716  11.993  14.274 -0.3738 -0.1167 -0.1910
   13mA      Am 3793   2.906  11.726  14.111  0.6796 -0.1076 -0.1420
   14mB      Bm 3794   2.891  11.404  13.919 -0.1173  0.4432 -0.1818
   15mC      Cm 3795   2.739  11.101  13.768  0.2177  0.2925  0.2350
   16mC      Cm 3796   2.473  10.885  13.547 -0.1788 -0.5023 -0.4441
   17mR      Rm 3797   2.610  10.794  13.833 -0.2448 -0.2101  0.2661
   18mB      Bm 3798   2.157  10.852  13.359  0.8900  0.0915 -0.7807
   19mA      Am 3799   1.791  10.886  13.273 -0.5017 -0.2901 -0.1757
   20mB      Bm 3800   1.480  11.028  13.380 -0.0166  0.6749  0.3398
   21mC      Cm 3801   1.222  11.188  13.587  0.1132  0.2143  0.4435
   22mC      Cm 3802   1.099  11.474  13.851  0.4806 -0.2961 -0.5369
   23mR      Rm 3803   1.013  11.150  13.851  0.0181 -0.0649 -0.4612
   24mB      Bm 3804   1.133  11.783  14.064 -0.4689 -0.0033  0.3028
   25mA      Am 3805   1.275  12.023  14.306 -0.1209  0.4264 -0.4397
   26mB      Bm 3806   1.538  12.069  14.565  0.4130 -1.1458  0.0043
   27mC      Cm 3807   1.815  12.014  14.795  0.1427  0.1868  0.2649
   28mC      Cm 3808   2.190  11.881  14.888 -0.4322 -0.0303  0.4695
   29mR      Rm 3809   1.910  11.846  15.070  0.4788 -0.0809  0.9425
   30mB      Bm 3810   2.501  11.714  14.793 -0.3531  0.0356 -0.4157
   31mA      Am 3811   2.746  11.467  14.662  0.2724 -0.3888  0.2329
   32mB      Bm 3812   2.774  11.138  14.503  0.1995 -0.5934  0.0613
   33mC      Cm 3813   2.673  10.801  14.362  0.3847 -0.8715 -0.0510
   34mC      Cm 3814   2.425  10.579  14.129  0.1701  0.2506  0.6601
   35mR      Rm 3815   2.566  10.491  14.424  1.5215  0.4522  0.5021
   36mB      Bm 3816   2.128  10.529  13.914  0.1668  0.4306 -0.7724
   37mA      Am 3817   1.783  10.554  13.776  0.8306 -0.0868 -0.6076
   38mB      Bm 3818   1.434  10.674  13.844 -0.0586 -0.2617  1.3487
   39mC      Cm 3819   1.149  10.820  14.024 -1.0869 -0.0630 -0.3681
   40mC      Cm 3820   0.954  11.092  14.268  0.7229 -0.4871 -0.3230
   41mR      Rm 3821   0.919  10.755  14.269 -0.7198 -0.8353  0.9430
   42mB      Bm 3822   0.946  11.394  14.483 -0.7217 -0.0976 -0.9900
   43mA      Am 3823   1.039  11.652  14.739 -0.2046 -0.0780  0.0712
   44mB      Bm 3824   1.297  11.716  14.994  0.0593  0.5642 -0.0966
   45mC      Cm 3825   1.580  11.680  15.225  0.1919 -0.8620  0.8202
   46mC      Cm 3826   1.967  11.572  15.312 -0.0099  0.4072  0.7300
   47mR      Rm 3827   1.686  11.518  15.502 -0.4938 -0.1191  0.2925
   48mB      Bm 3828   2.300  11.428  15.248  0.1331 -0.3712 -0.5917
   49mA      Am 3829   2.530  11.175  15.127 -0.3757  0.6870 -0.4488
   50mB      Bm 3830   2.583  10.842  14.973 -0.0382 -0.4621 -0.1078
   51mC      Cm 3831   2.502  10.506  14.833  0.0187 -0.8510  0.2957
   52mC      Cm 3832   2.284  10.239  14.608 -0.4527  0.1711  0.4195
   53mR      Rm 3833   2.385  10.207  14.931  0.8906 -0.1801 -0.1914
   54mB      Bm 3834   2.034  10.122  14.357  0.5604  0.9325 -0.1483
   55mA      Am 3835   1.691  10.100  14.218 -0.2050  0.4889 -0.1885
   56mB      Bm 3836   1.337  10.187  14.254  0.7913 -0.5777 -0.1810
   57mC      Cm 3837   1.038  10.326  14.418  0.1960 -0.5490  0.5700
   58mC      Cm 3838   0.821  10.602  14.616 -0.0365 -0.0182 -0.1722
   59mR      Rm 3839   0.807  10.274  14.664 -0.1131 -0.2354  0.7236
   60mB      Bm 3840   0.783  10.924  14.807  0.3068 -0.3138  0.8886
   61mA      Am 3841   0.857  11.193  15.054  0.2413 -0.5353  0.3065
   62mB      Bm 3842   1.068  11.305  15.330 -0.3090  0.6176 -0.0399
   63mC      Cm 3843   1.327  11.305  15.591 -0.1736  0.2364 -0.4697
   64mC      Cm 3844   1.716  11.230  15.713  0.2178  0.1440  0.0497
   65mR      Rm 3845   1.431  11.191  15.890 -0.2432 -0.4773  0.5517
   66mB      Bm 3846   2.062  11.095  15.685 -0.9278  0.6294  0.6925
   67mA      Am 3847   2.331  10.858  15.625  1.1118 -0.4673 -0.8037
   68mB      Bm 3848   2.421  10.521  15.497 -0.6308 -0.9749 -0.0384
   69mC      Cm 3849   2.368  10.177  15.358 -0.4030 -0.0193  1.1357
   70mC      Cm 3850   2.195   9.905  15.114  0.0702 -0.2842 -0.1991
   71mR      Rm 3851   2.267   9.871  15.439 -0.0759 -0.1871  0.0542
   72mB      Bm 3852   1.967   9.783  14.850  1.1184 -0.2196 -0.0250
   73mA      Am 3853   1.642   9.712  14.682 -0.4543 -0.3713  0.3357
   74mB      Bm 3854   1.285   9.767  14.712  0.2821 -0.0643 -0.0717
   75mC      Cm 3855   0.960   9.868  14.856 -0.2282 -0.2896 -0.7964
   76mC      Cm 3856   0.717  10.141  15.047  0.4913  0.7207  0.5790
   77mR      Rm 3857   0.739   9.815  15.104  0.2403 -0.0972  0.3162
   78mB      Bm 3858   0.635  10.458  15.224 -0.8865 -1.1538 -0.5890
   79mA      Am 3859   0.670  10.738  15.466 -0.0392 -0.4018 -0.3781
   80mB      Bm 3860   0.855  10.908  15.744  0.1088  0.0866  0.2319
   81mC      Cm 3861   1.108  10.969  16.016 -0.7891 -0.1269  0.7618
   82mC      Cm 3862   1.487  10.950  16.166  0.0035 -0.4097 -0.2818
   83mR      Rm 3863   1.193  10.881  16.329 -0.1881  0.8334 -1.1859
   84mB      Bm 3864   1.841  10.837  16.152  0.1413 -0.0468 -0.2969
   85mA      Am 3865   2.143  10.626  16.110  0.8718  0.0675 -0.8717
   86mB      Bm 3866   2.243  10.295  16.005 -0.4039  0.0866 -0.0978
   87mC      Cm 3867   2.221   9.940  15.899 -0.2255 -0.4611  0.2975
   88mC      Cm 3868   2.050   9.630  15.690  0.0874  0.8905  0.7971
   89mR      Rm 3869   2.133   9.631  16.016 -0.2365  0.2139 -0.6384
   90mB      Bm 3870   1.802   9.499  15.438  0.1083 -0.9107  0.5224
   91mA      Am 3871   1.477   9.429  15.267 -0.4165 -0.3460 -0.0486
   92mB      Bm 3872   1.113   9.475  15.288  0.2659  0.0547  0.4599
   93mC      Cm 3873   0.787   9.574  15.400 -0.1613  0.4646 -0.4833
   94mC      Cm 3874   0.527   9.832  15.572  1.3748  0.1978  1.5689
   95mR      Rm 3875   0.534   9.499  15.606  0.1830 -0.2012 -1.2570
   96mB      Bm 3876   0.447  10.151  15.748 -0.9925  0.7224  0.1098
   97mA      Am 3877   0.453  10.447  15.967  0.2355 -0.1813 -1.0914
   98mB      Bm 3878   0.645  10.632  16.228  0.7285  0.1302  0.2307
   99mC      Cm 3879   0.898  10.703  16.478 -0.8711 -0.3103 -0.1684
  100mC      Cm 3880   1.280  10.681  16.637  0.0148 -0.0727  0.2100
  101mR      Rm 3881   0.991  10.608  16.791  0.3133 -0.0489  0.4254
  102mB      Bm 3882   1.638  10.589  16.608  0.5538 -0.2928  0.3019
  103mA      Am 3883   1.946  10.394  16.560 -0.7613  0.5093  1.0297
  104mB      Bm 3884   2.078  10.045  16.484  0.3693 -0.5937 -0.8840
  105mC      Cm 3885   2.090   9.681  16.411  0.1080  0.7360 -0.3047
  106mC      Cm 3886   2.006   9.342  16.200 -0.4245  0.1748 -0.5635
  107mR      Rm 3887   2.041   9.366  16.525 -1.4104 -0.6801  0.4766
  108tB      Bt 3888   1.932   9.129  15.904  0.3144 -0.4035 -0.0700
    1hA      Ah 3889   8.389  12.062  23.825 -0.7301 -0.2633  0.4271
    2mB      Bm 3890   8.715  11.895  23.858 -0.0701  0.8130  0.3152
    3mC      Cm 3891   9.075  11.852  23.817  0.1307 -1.0777 -0.8379
    4mC      Cm 3892   9.471  11.945  23.891 -0.1120  0.2256 -0.1611
    5mR      Rm 3893   9.329  11.826  23.604  0.3626 -0.7349  0.4855
    6mB      Bm 3894   9.748  12.165  24.016 -0.0716 -0.1044  0.2490
    7mA      Am 3895   9.944  12.467  24.082 -0.1013  0.1509 -0.0002
    8mB      Bm 3896   9.979  12.828  24.039 -0.9094  0.2235 -0.5388
    9mC      Cm 3897   9.907  13.165  23.896  0.9635 -0.8505  0.3851
   10mC      Cm 3898   9.690  13.498  23.820 -0.1146 -0.3463 -0.1172
   11mR      Rm 3899   9.906  13.346  23.613  0.9743 -1.1897 -0.4318
   12mB      Bm 3900   9.379  13.707  23.831  0.3486  0.7318  0.6096
   13mA      Am 3901   9.028  13.813  23.781 -0.0299  0.6951  0.2196
   14mB      Bm 3902   8.705  13.719  23.640  0.1210  0.6716 -0.3611
   15mC      Cm 3903   8.442  13.534  23.464  0.3851 -0.2999 -0.9952
   16mC      Cm 3904   8.261  13.193  23.349  0.2891  0.5723 -0.3050
   17mR      Rm 3905   8.330  13.450  23.163 -0.9796 -0.6788  0.6352
   18mB      Bm 3906   8.229  12.810  23.349  0.0025  0.1698 -0.0981
   19mA      Am 3907   8.319  12.461  23.318  0.2577  0.2928 -0.5952
   20mB      Bm 3908   8.572  12.210  23.241 -0.2543  0.7328  0.4215
   21mC      Cm 3909   8.899  12.054  23.156  0.1403  0.1028 -0.5748
   22mC      Cm 3910   9.312  12.027  23.167 -0.0461  0.6394 -0.1171
   23mR      Rm 3911   9.112  12.007  22.901  0.9930  0.6617 -0.1182
   24mB      Bm 3912   9.653  12.158  23.261  0.1555 -0.5522 -0.1533
   25mA      Am 3913   9.950  12.375  23.343 -0.9280 -0.1438  0.6168
   26mB      Bm 3914  10.071  12.720  23.334  1.3216  0.2109 -0.0363
   27mC      Cm 3915  10.080  13.085  23.275 -0.7444  1.1836  0.0894
   28mC      Cm 3916   9.912  13.457  23.264  0.6644 -1.2610  0.3945
   29mR      Rm 3917  10.119  13.315  23.036 -0.7061 -0.3365  0.8753
   30mB      Bm 3918   9.641  13.700  23.317 -0.1171  0.3567 -0.8839
   31mA      Am 3919   9.304  13.855  23.294  0.0202  0.5505  0.0784
   32mB      Bm 3920   8.973  13.816  23.135 -0.7111  1.5007  0.2318
   33mC      Cm 3921   8.682  13.690  22.936  1.0057  0.9270 -0.9205
   34mC      Cm 3922   8.453  13.376  22.803 -0.4943 -0.4011 -0.1506
   35mR      Rm 3923   8.572  13.627  22.621  0.4828 -0.3792  0.2563
   36mB      Bm 3924   8.372  13.021  22.783  0.0423  0.5237 -0.0109
   37mA      Am 3925   8.425  12.657  22.750 -0.5461  0.5837 -0.5270
   38mB      Bm 3926   8.655  12.375  22.672  0.1288 -0.3390 -0.5247
   39mC      Cm 3927   8.949  12.171  22.574 -1.1506 -0.4038  0.3394
   40mC      Cm 3928   9.347  12.085  22.585  0.7531 -0.7257 -0.1042
   41mR      Rm 3929   9.149  12.102  22.308 -0.4626  0.8873  0.7889
   42mB      Bm 3930   9.685  12.119  22.705 -0.1905  0.0704 -0.1459
   43mA      Am 3931  10.002  12.280  22.793 -0.2375 -0.0566  0.2469
   44mB      Bm 3932  10.213  12.584  22.775 -0.3903 -0.8493 -0.4375
   45mC      Cm 3933  10.301   0.583  22.695  0.2675 -0.6449  0.7790
   46mC      Cm 3934  10.186   0.969  22.679  0.9364 -0.1477  0.4809
   47mR      Rm 3935  10.339   0.798  22.444  0.1521 -0.2423 -0.4925
   48mB      Bm 3936   9.965   1.265  22.709  0.2173 -1.0993 -0.1297
   49mA      Am 3937   9.665   1.467  22.686 -0.5762  0.3081  0.4229
   50mB      Bm 3938   9.314   1.494  22.576 -0.6438 -0.2277 -0.3802
   51mC      Cm 3939   8.994   1.395  22.399 -0.6970 -0.4722  0.1385
   52mC      Cm 3940   8.710   1.129  22.288 -0.3355  0.4427  0.0655
   53mR      Rm 3941   8.847   1.367  22.098  0.7369 -0.0436 -0.0827
   54mB      Bm 3942   8.557   0.787  22.269  0.7794  0.7186  0.0363
   55mA      Am 3943   8.527   0.418  22.223  0.2577 -0.0719  0.2564
   56mB      Bm 3944   8.693   0.099  22.116  0.2751 -0.9631 -0.4200
   57mC      Cm 3945   8.948  -0.131  21.984 -1.1540  0.2685  0.4189
   58mC      Cm 3946   9.335  -0.259  21.964  0.7962 -0.6419  0.4779
   59mR      Rm 3947   9.131  -0.213  21.709 -0.4628  1.8418 -1.9900
   60mB      Bm 3948   9.691  -0.251  22.066  0.5101  0.1526  0.3092
   61mA      Am 3949  10.030  -0.134  22.144 -0.1934  0.2083  0.5256
   62mB      Bm 3950  10.269   0.148  22.141  0.2602 -0.8235 -0.4077
   63mC      Cm 3951  10.394   0.489  22.093 -0.2426  0.6922 -0.1840
   64mC      Cm 3952  10.383   0.895  22.070 -0.3515 -1.0909  0.1059
   65mR      Rm 3953  10.502   0.676  21.834 -0.3841 -1.5358  1.2517
   66mB      Bm 3954  10.237   1.236  22.122 -0.5633 -0.0032  0.4212
   67mA      Am 3955   9.970   1.491  22.118 -0.0177  0.0284  0.1294
   68mB      Bm 3956   9.625   1.553  22.009  0.4478 -0.4522  0.2581
   69mC      Cm 3957   9.289   1.524  21.841 -0.1685 -0.2313 -0.4692
   70mC      Cm 3958   8.958   1.311  21.732  0.2483  0.4464 -0.0968
   71mR      Rm 3959   9.152   1.497  21.527 -0.3431 -1.5532  0.0664
   72mB      Bm 3960   8.768   0.992  21.722  0.3930 -0.4572  0.0433
   73mA      Am 3961   8.684   0.646  21.671 -0.7093  0.2315 -0.0281
   74mB      Bm 3962   8.788   0.316  21.557 -0.3805  0.4535 -0.1420
   75mC      Cm 3963   9.006   0.054  21.421  0.6821 -0.4224 -0.3269
   76mC      Cm 3964   9.341  -0.189  21.395 -0.6927  0.0594 -0.2389
   77mR      Rm 3965   9.137  -0.072  21.143 -0.1610 -1.5096  0.8786
   78mB      Bm 3966   9.694  -0.246  21.476  0.3215  0.1211  0.1108
   79mA      Am 3967  10.057  -0.184  21.546 -0.2220 -0.4008  0.0973
   80mB      Bm 3968  10.331   0.054  21.542 -0.1777 -0.8974  0.6022
   81mC      Cm 3969  10.518   0.371  21.480  0.4014  0.9821 -0.9208
   82mC      Cm 3970  10.561   0.781  21.501 -0.3039 -0.3780 -0.4045
   83mR      Rm 3971  10.669   0.573  21.247  0.3543 -0.0702  0.0254
   84mB      Bm 3972  10.451   1.129  21.572 -1.2723  0.0977 -0.4509
   85mA      Am 3973  10.245   1.428  21.584 -0.4328  0.5233  0.0345
   86mB      Bm 3974   9.914   1.556  21.466 -0.0222 -0.2676 -0.6960
   87mC      Cm 3975   9.573   1.563  21.305  0.4245 -0.0907 -0.3289
   88mC      Cm 3976   9.200   1.411  21.213 -0.7307  0.2050  0.3629
   89mR      Rm 3977   9.411   1.585  21.011  0.2828  0.7341 -0.9883
   90mB      Bm 3978   8.961   1.132  21.181 -0.0285  0.2058  0.3599
   91mA      Am 3979   8.791   0.823  21.113  0.7979  0.1867 -0.4614
   92mB      Bm 3980   8.827   0.475  20.993 -0.6978 -0.3944  0.0166
   93mC      Cm 3981   8.961   0.158  20.862  0.3200 -0.1009 -0.7784
   94mC      Cm 3982   9.257  -0.119  20.818 -0.6910  0.2275  0.5025
   95mR      Rm 3983   9.066   0.016  20.574 -0.1473 -0.6738 -0.0489
   96mB      Bm 3984   9.606  -0.266  20.869  0.4362 -0.5903 -0.8929
   97mA      Am 3985   9.969  -0.286  20.889 -0.8102  0.5791  0.0242
   98mB      Bm 3986  10.272  -0.070  20.854 -0.3392  0.2869 -0.7312
   99mC      Cm 3987  10.506   0.222  20.789  0.5093  0.3923 -0.5989
  100mC      Cm 3988  10.620   0.613  20.809 -0.3976 -0.6850 -0.4752
  101mR      Rm 3989  10.649   0.400  20.549  0.0764 -0.6441  0.8075
  102mB      Bm 3990  10.566   0.976  20.885 -1.5952 -0.0392  1.4129
  103mA      Am 3991  10.415   1.314  20.908  0.0993  0.3933  0.3983
  104mB      Bm 3992  10.130   1.521  20.814 -0.3816 -0.3211 -0.9802
  105mC      Cm 3993   9.800   1.613  20.673 -1.1983  0.0604  0.7648
  106mC      Cm 3994   9.408   1.544  20.608  1.8788  0.7571  0.6412
  107mR      Rm 3995   9.635   1.631  20.374 -0.2571 -1.1694 -0.8403
  108tB      Bt 3996   9.071   1.370  20.653 -0.2942 -0.0342  0.2304
    1hA      Ah 3997   6.009  11.519  25.530 -0.1999 -0.1658 -0.3411
    2mB      Bm 3998   5.914  11.676  25.850 -0.2085 -0.5492 -0.0325
    3mC      Cm 3999   5.811  11.730  26.206 -0.7800  0.2560 -0.5373
    4mC      Cm 4000   5.845  11.688  26.614  0.1137  0.3765  0.6910
    5mR      Rm 4001   5.559  11.647  26.427 -1.2412 -0.4484 -1.2460
    6mB      Bm 4002   6.004  11.626  26.936  0.3076 -0.2760  0.0211
    7mA      Am 4003   6.170  11.425  27.217 -0.1735 -0.9425  0.4021
    8mB      Bm 4004   6.263  11.082  27.306  0.3971 -0.4181 -0.8150
    9mC      Cm 4005   6.308  10.713  27.310 -0.4291 -0.3611  0.3686
   10mC      Cm 4006   6.391  10.338  27.159 -0.3775 -0.3390  0.5484
   11mR      Rm 4007   6.131  10.425  27.349  0.8997  0.4367 -1.0830
   12mB      Bm 4008   6.493  10.119  26.884 -0.4129  0.5011  0.4543
   13mA      Am 4009   6.512   9.981  26.540 -0.0115  0.0811  0.2505
   14mB      Bm 4010   6.401  10.007  26.203  0.7563  0.0045 -0.4234
   15mC      Cm 4011   6.218  10.109  25.899 -0.1232  0.7081  0.3125
   16mC      Cm 4012   6.031  10.380  25.648  1.0332 -0.0517  0.5786
   17mR      Rm 4013   5.931  10.071  25.734 -0.8227  1.1593 -0.0034
   18mB      Bm 4014   5.904  10.723  25.551 -0.1640 -0.7801 -0.8172
   19mA      Am 4015   5.724  11.042  25.563  0.0296  0.9906  0.0729
   20mB      Bm 4016   5.509  11.275  25.748 -0.3116 -0.6805 -0.6639
   21mC      Cm 4017   5.308  11.422  26.027  0.0560  0.7580  0.6408
   22mC      Cm 4018   5.210  11.453  26.427  0.4545 -0.2853  0.8920
   23mR      Rm 4019   4.994  11.434  26.160 -0.0084 -0.1786 -0.8778
   24mB      Bm 4020   5.253  11.386  26.787 -0.6114  0.3325  1.1791
   25mA      Am 4021   5.264  11.203  27.096  0.3577 -0.1586 -0.6981
   26mB      Bm 4022   5.254  10.881  27.280 -0.0908  0.9461 -0.0686
   27mC      Cm 4023   5.199  10.515  27.333 -0.5570  0.2976  0.7896
   28mC      Cm 4024   5.195  10.113  27.265  0.2274 -0.4124  0.4452
   29mR      Rm 4025   4.946  10.302  27.372  0.2479 -0.1932 -0.3363
   30mB      Bm 4026   5.287   9.819  27.075 -0.3990  0.1503 -0.1681
   31mA      Am 4027   5.341   9.592  26.783 -0.3488 -1.2060  0.0685
   32mB      Bm 4028   5.304   9.510  26.418 -0.1408  0.7070  0.7888
   33mC      Cm 4029   5.224   9.495  26.058  0.1115 -0.5426  0.1839
   34mC      Cm 4030   5.180   9.645  25.675  1.0018 -0.3176 -1.3040
   35mR      Rm 4031   4.960   9.445  25.850  0.0025 -0.3033  0.4229
   36mB      Bm 4032   5.193   9.905  25.416 -0.5697  0.0415 -0.8434
   37mA      Am 4033   5.136  10.223  25.235  0.4184 -0.3595  0.1064
   38mB      Bm 4034   4.954  10.544  25.219  0.1156  0.2676 -0.2680
   39mC      Cm 4035   4.727  10.832  25.310 -0.1204  0.5920  1.2005
   40mC      Cm 4036   4.585  11.104  25.581 -0.6148 -1.3806  0.5732
   41mR      Rm 4037   4.406  10.917  25.370 -0.5692 -1.0822 -0.4528
   42mB      Bm 4038   4.586  11.293  25.897 -0.2350  0.0949  0.0671
   43mA      Am 4039   4.590  11.347  26.263 -0.0901  0.5190 -0.2574
   44mB      Bm 4040   4.549  11.188  26.594  0.6585  1.2388  0.4396
   45mC      Cm 4041   4.479  10.928  26.839  0.4189 -0.3095  0.0756
   46mC      Cm 4042   4.477  10.539  26.986 -0.7202 -0.4308  0.0002
   47mR      Rm 4043   4.217  10.764  26.985 -1.1416 -0.7846  0.8405
   48mB      Bm 4044   4.574  10.184  26.979  1.6238  0.4239  1.0544
   49mA      Am 4045   4.634   9.833  26.873  0.2963 -0.0054 -0.5002
   50mB      Bm 4046   4.614   9.601  26.586  0.0127 -0.5463 -0.6021
   51mC      Cm 4047   4.546   9.494  26.234 -0.5740 -0.1180  0.8533
   52mC      Cm 4048   4.527   9.543  25.828  0.5125  0.4794  0.4605
   53mR      Rm 4049   4.287   9.429  26.029  0.8293  1.0040 -0.3326
   54mB      Bm 4050   4.574   9.737  25.510  0.3445 -0.6049 -1.1903
   55mA      Am 4051   4.531  10.014  25.274  0.3248  0.1718  0.7225
   56mB      Bm 4052   4.385  10.347  25.189 -1.7286  0.3817 -0.0678
   57mC      Cm 4053   4.194  10.664  25.223  0.5024 -0.3046 -0.4938
   58mC      Cm 4054   4.062  11.000  25.420  0.4641  0.1627  0.0068
   59mR      Rm 4055   3.880  10.788  25.236 -0.2858  0.7690  1.8864
   60mB      Bm 4056   4.040  11.237  25.704 -0.4506 -0.3052  0.9478
   61mA      Am 4057   4.013  11.342  26.063 -0.5331  0.7081  0.7092
   62mB      Bm 4058   3.938  11.256  26.414  0.2158 -0.6935 -0.0703
   63mC      Cm 4059   3.837  11.062  26.712 -0.0310  0.6655 -1.3636
   64mC      Cm 4060   3.823  10.716  26.932  0.5774 -0.6137  0.8191
   65mR      Rm 4061   3.571  10.926  26.867  0.0108  1.1969  0.7946
   66mB      Bm 4062   3.918  10.362  27.011 -0.7626  0.5738 -0.0358
   67mA      Am 4063   3.991  10.004  26.964  0.9654 -0.2405 -0.5375
   68mB      Bm 4064   3.980   9.711  26.734 -0.0316  0.0160 -0.5727
   69mC      Cm 4065   3.902   9.493  26.439 -0.1734  0.0418 -1.0612
   70mC      Cm 4066   3.877   9.431  26.033  0.3733  0.1680 -0.3219
   71mR      Rm 4067   3.661   9.327  26.280 -0.6522 -0.8295  0.9908
   72mB      Bm 4068   3.888   9.521  25.675 -0.1706 -0.3730  1.2267
   73mA      Am 4069   3.837   9.714  25.355  0.1445 -0.1473 -0.2379
   74mB      Bm 4070   3.723  10.026  25.194  0.3255  0.8422  0.6216
   75mC      Cm 4071   3.575  10.361  25.163  0.4709 -0.6694  0.3713
   76mC      Cm 4072   3.468  10.740  25.267 -0.4541  0.5594  0.4419
   77mR      Rm 4073   3.267  10.490  25.162 -0.5472  0.2196 -0.3128
   78mB      Bm 4074   3.459  11.025  25.505  0.1889 -0.4883 -0.2368
   79mA      Am 4075   3.438  11.228  25.820 -0.4381 -0.8819  0.1522
   80mB      Bm 4076   3.371  11.209  26.187 -0.7150  0.0671 -0.2552
   81mC      Cm 4077   3.267  11.071  26.513 -0.1818 -0.1446  0.2748
   82mC      Cm 4078   3.243  10.783  26.810  1.0476 -0.6879 -0.0709
   83mR      Rm 4079   3.000  10.969  26.683  2.3011 -0.7222 -1.7603
   84mB      Bm 4080   3.307  10.459  26.951 -0.5968  0.5610 -0.3393
   85mA      Am 4081   3.348  10.092  26.958  0.4280  0.1527  0.0749
   86mB      Bm 4082   3.313   9.764  26.781  0.3404 -0.4635 -0.1031
   87mC      Cm 4083   3.239   9.504  26.514 -0.1298  0.4775 -0.5503
   88mC      Cm 4084   3.244   9.368  26.128 -0.4741 -0.3954 -0.0538
   89mR      Rm 4085   2.999   9.324  26.361  0.4353  0.4741 -1.1310
   90mB      Bm 4086   3.304   9.402  25.772  0.6015 -0.1221 -0.4714
   91mA      Am 4087   3.309   9.556  25.448 -0.9956  0.1659  0.3733
   92mB      Bm 4088   3.173   9.839  25.262  0.3350 -0.5161 -0.3200
   93mC      Cm 4089   2.983  10.139  25.168 -0.5206 -0.3944 -0.0796
   94mC      Cm 4090   2.860  10.526  25.223  0.8035  0.6532 -0.2519
   95mR      Rm 4091   2.665  10.254  25.147  0.1993 -0.8189  0.9387
   96mB      Bm 4092   2.881  10.842  25.425  0.5723 -0.7407 -0.3347
   97mA      Am 4093   2.854  11.046  25.727  0.1455  0.2923  0.0244
   98mB      Bm 4094   2.772  11.055  26.095  0.2125  0.6555  0.2150
   99mC      Cm 4095   2.683  10.962  26.444 -0.6888 -0.1565  0.0917
  100mC      Cm 4096   2.669  10.700  26.764 -0.3564  0.6741 -1.0604
  101mR      Rm 4097   2.414  10.868  26.627  0.1329 -0.3051  0.0599
  102mB      Bm 4098   2.748  10.376  26.935 -0.3025  0.4705  1.0330
  103mA      Am 4099   2.786  10.019  26.999 -0.3463 -0.8274 -0.7128
  104mB      Bm 4100   2.740   9.681  26.882  0.3101  0.0051  0.2110
  105mC      Cm 4101   2.638   9.408  26.657 -0.0426  0.5996 -0.2209
  106mC      Cm 4102   2.617   9.187  26.313 -0.0525  0.0315 -0.6990
  107mR      Rm 4103   2.373   9.240  26.540  0.3545 -0.6542  0.4698
  108tB      Bt 4104   2.668   9.138  25.947 -0.5849 -0.5828  0.2412
    1hA      Ah 4105   6.453   7.433  25.937  0.4231  0.1758 -0.3935
    2mB      Bm 4106   6.304   7.349  25.614 -0.3309 -0.2307  1.1013
    3mC      Cm 4107   6.102   7.370  25.310  0.2709 -0.1118 -0.3389
    4mC      Cm 4108   5.941   7.544  24.980 -0.0270  0.0731 -0.1022
    5mR      Rm 4109   5.778   7.380  25.229 -0.7932  0.3511  0.1029
    6mB      Bm 4110   5.912   7.820  24.740  0.3681  0.0210 -0.1205
    7mA      Am 4111   5.885   8.172  24.626 -0.2722  0.4617  0.1066
    8mB      Bm 4112   5.825   8.531  24.709  0.9639 -0.3916 -0.3805
    9mC      Cm 4113   5.756   8.827  24.921 -0.8809  1.2468 -1.0590
   10mC      Cm 4114   5.812   9.087  25.237  0.6044 -0.2894  0.6760
   11mR      Rm 4115   5.513   8.980  25.084  0.0274 -0.7806 -0.9934
   12mB      Bm 4116   5.962   9.185  25.562  0.1390  0.8082  0.0753
   13mA      Am 4117   6.086   9.143  25.904  0.1063 -0.5680  0.0011
   14mB      Bm 4118   6.118   8.929  26.195  0.0988  0.6884  0.1005
   15mC      Cm 4119   6.079   8.633  26.423  0.7646  0.5784  0.0228
   16mC      Cm 4120   6.078   8.227  26.490 -0.0692  0.0479  0.9087
   17mR      Rm 4121   5.861   8.455  26.627 -1.7404 -1.1820  0.7382
   18mB      Bm 4122   6.094   7.883  26.369 -0.0724  0.3441 -0.2689
   19mA      Am 4123   6.022   7.576  26.169  0.1876 -0.7057  0.4609
   20mB      Bm 4124   5.797   7.419  25.927 -1.3354  0.6546  0.2830
   21mC      Cm 4125   5.532   7.361  25.685 -0.7142  0.1971  0.1065
   22mC      Cm 4126   5.311   7.434  25.353 -0.3149 -0.5278 -0.2982
   23mR      Rm 4127   5.200   7.336  25.647  1.0846  0.3991  0.1585
   24mB      Bm 4128   5.212   7.623  25.052 -0.2457 -0.9548  0.0152
   25mA      Am 4129   5.107   7.912  24.845 -0.1444 -0.1259  0.5245
   26mB      Bm 4130   5.001   8.268  24.854  0.5058  0.1968  0.2992
   27mC      Cm 4131   4.890   8.606  24.984  1.0736 -0.3216  0.0342
   28mC      Cm 4132   4.944   8.916  25.236  0.0074 -0.5459 -0.4913
   29mR      Rm 4133   4.651   8.785  25.132 -1.0181  1.5674  1.2064
   30mB      Bm 4134   5.125   9.101  25.505 -0.5762 -0.0600 -0.5998
   31mA      Am 4135   5.293   9.182  25.817 -0.3792 -0.1452  0.3035
   32mB      Bm 4136   5.399   9.024  26.138  0.5830 -0.8220  0.4998
   33mC      Cm 4137   5.440   8.765  26.411 -1.2300  0.6217  0.7661
   34mC      Cm 4138   5.511   8.383  26.540  0.6605 -0.1998 -0.5615
   35mR      Rm 4139   5.296   8.611  26.670  0.4647 -0.2961 -0.9932
   36mB      Bm 4140   5.556   8.017  26.517 -0.4427 -0.3589  0.4674
   37mA      Am 4141   5.512   7.666  26.405  0.0916 -0.6896  0.2294
   38mB      Bm 4142   5.312   7.429  26.203 -0.8016  0.1473 -0.8151
   39mC      Cm 4143   5.042   7.290  25.984 -1.0935  0.5330  0.1391
   40mC      Cm 4144   4.785   7.336  25.669  0.9959 -0.4046  1.2551
   41mR      Rm 4145   4.699   7.249  25.985 -0.3872 -0.4710 -0.0586
   42mB      Bm 4146   4.658   7.511  25.365  0.5218  0.3339  0.4626
   43mA      Am 4147   4.535   7.780  25.125 -0.3261 -0.8940  0.6681
   44mB      Bm 4148   4.419   8.125  25.084 -0.0313 -0.2667 -0.1261
   45mC      Cm 4149   4.320   8.472  25.163  0.8937  0.7171  1.0790
   46mC      Cm 4150   4.370   8.822  25.381 -0.5316 -0.5870 -0.2387
   47mR      Rm 4151   4.086   8.665  25.322 -0.5068  0.3756  0.9226
   48mB      Bm 4152   4.530   9.065  25.617  0.1568  0.0477 -0.2672
   49mA      Am 4153   4.661   9.203  25.929 -0.2553 -0.5804 -0.5278
   50mB      Bm 4154   4.744   9.116  26.278  0.0563 -0.3038 -0.3484
   51mC      Cm 4155   4.773   8.919  26.590 -0.4993  0.6121  0.0822
   52mC      Cm 4156   4.860   8.585  26.811 -0.0838  1.5848  0.4487
   53mR      Rm 4157   4.617   8.811  26.876  0.8338  0.3991  0.5790
   54mB      Bm 4158   4.952   8.235  26.881 -0.4246  0.4078  0.6230
   55mA      Am 4159   4.948   7.861  26.864  0.3197 -0.7110 -0.7159
   56mB      Bm 4160   4.795   7.570  26.693 -0.0001  0.3274  0.3426
   57mC      Cm 4161   4.553   7.393  26.468  0.1217  0.3536 -0.0142
   58mC      Cm 4162   4.349   7.341  26.112  0.5854 -0.5510 -0.1684
   59mR      Rm 4163   4.237   7.262  26.426 -0.7382  0.0021  0.2600
   60mB      Bm 4164   4.231   7.450  25.781  0.2849  0.4222  0.0655
   61mA      Am 4165   4.086   7.642  25.516  0.2052 -0.6768 -0.2291
   62mB      Bm 4166   3.924   7.968  25.441 -0.2662 -0.6432  0.3779
   63mC      Cm 4167   3.764   8.309  25.465 -1.2172  0.9958 -0.2326
   64mC      Cm 4168   3.782   8.681  25.637  0.7483  0.4832 -0.5306
   65mR      Rm 4169   3.506   8.479  25.589  0.0474 -0.2289  0.3352
   66mB      Bm 4170   3.927   8.946  25.836  0.1483 -0.0565 -0.6973
   67mA      Am 4171   4.066   9.116  26.139  0.3300  0.1448 -0.3832
   68mB      Bm 4172   4.173   9.073  26.490 -0.0326  0.2297 -0.0570
   69mC      Cm 4173   4.220   8.908  26.818 -0.0901 -0.0330  1.0391
   70mC      Cm 4174   4.308   8.585  27.058  0.4725 -1.5340 -0.6970
   71mR      Rm 4175   4.063   8.803  27.090 -1.0547 -1.1515  1.9599
   72mB      Bm 4176   4.391   8.227  27.147 -0.8022 -0.3236  0.1194
   73mA      Am 4177   4.377   7.867  27.149 -0.4578 -0.7751  0.6223
   74mB      Bm 4178   4.249   7.553  27.010  0.1214 -1.3110 -0.0451
   75mC      Cm 4179   4.036   7.325  26.815  0.5279  0.2600 -0.0192
   76mC      Cm 4180   3.833   7.183  26.491  0.3998 -0.0263  0.9880
   77mR      Rm 4181   3.737   7.163  26.807  1.0431 -0.5539 -0.4835
   78mB      Bm 4182   3.709   7.214  26.146 -0.1438 -0.3093 -0.0973
   79mA      Am 4183   3.542   7.336  25.841  0.2415  1.1423 -0.1157
   80mB      Bm 4184   3.346   7.621  25.701  0.3826  0.1688  0.6833
   81mC      Cm 4185   3.175   7.939  25.674 -0.7279 -0.0511  0.0106
   82mC      Cm 4186   3.114   8.336  25.755  1.3886  0.2958 -0.6635
   83mR      Rm 4187   2.885   8.102  25.765 -1.2743 -0.3822  0.9045
   84mB      Bm 4188   3.196   8.660  25.908  0.0901  0.1703 -0.6589
   85mA      Am 4189   3.290   8.917  26.159  0.0085 -0.4375 -0.6197
   86mB      Bm 4190   3.361   8.977  26.518  0.3747  0.6883  0.2649
   87mC      Cm 4191   3.398   8.914  26.881 -0.3872 -0.4847  1.3367
   88mC      Cm 4192   3.541   8.704  27.211 -0.0976 -0.6817 -0.4406
   89mR      Rm 4193   3.234   8.845  27.170  0.8800 -0.7196 -1.2330
   90mB      Bm 4194   3.702   8.401  27.367  0.0073 -0.3096  0.3862
   91mA      Am 4195   3.787   8.048  27.448 -0.1611  0.3161 -0.6935
   92mB      Bm 4196   3.691   7.702  27.378 -0.5862  0.1115 -0.0896
   93mC      Cm 4197   3.507   7.411  27.244  0.2299  0.6781  0.1711
   94mC      Cm 4198   3.338   7.217  26.924 -0.4803 -0.2353  0.5358
   95mR      Rm 4199   3.217   7.223  27.236  0.4926  1.5791  0.6704
   96mB      Bm 4200   3.225   7.207  26.571 -0.2977 -0.0463 -0.5510
   97mA      Am 4201   3.042   7.314  26.269 -0.2137 -0.4187 -0.7609
   98mB      Bm 4202   2.807   7.548  26.115  0.1090 -0.3299  0.2412
   99mC      Cm 4203   2.552   7.809  26.086 -0.5694 -0.5143 -0.1324
  100mC      Cm 4204   2.385   8.175  26.150 -1.2102  0.2365 -0.1884
  101mR      Rm 4205   2.240   7.873  26.172  0.5147  0.7309 -0.1109
  102mB      Bm 4206   2.353   8.527  26.304 -0.2296  0.0424 -0.1507
  103mA      Am 4207   2.341   8.799  26.545  0.1597  0.3978 -0.5567
  104mB      Bm 4208   2.363   8.891  26.899 -0.3135 -0.4996  0.3422
  105mC      Cm 4209   2.392   8.862  27.273 -0.3692  0.2622 -0.1394
  106mC      Cm 4210   2.531   8.698  27.620 -0.1494 -0.7309  0.7210
  107mR      Rm 4211   2.210   8.756  27.522  0.6550 -0.2599  0.2875
  108tB      Bt 4212   2.748   8.730  27.917 -0.1446 -0.2635 -0.3948
    1hA      Ah 4213  12.275   8.344  27.745 -0.4156  0.3937 -1.0059
    2mB      Bm 4214  12.329   8.347  27.381 -0.3648  0.0475  0.2038
    3mC      Cm 4215  12.276   8.335  27.018 -0.4089  0.2640  0.9362
    4mC      Cm 4216  12.078   8.429  26.670 -1.2721 -0.0123 -1.1063
    5mR      Rm 4217  12.221   8.127  26.759  0.0705  0.2800  0.1859
    6mB      Bm 4218  11.803   8.576  26.470  0.8719 -0.4709  0.3485
    7mA      Am 4219  11.462   8.687  26.349 -0.5916 -0.5133 -0.3932
    8mB      Bm 4220  11.101   8.727  26.388  0.7024 -0.2551  0.6278
    9mC      Cm 4221  10.752   8.705  26.516 -0.6408 -0.3511 -0.0776
   10mC      Cm 4222  10.480   8.724  26.823 -0.0850  0.3568  1.1939
   11mR      Rm 4223  10.494   8.485  26.579 -0.2562 -1.4549 -0.8895
   12mB      Bm 4224  10.377   8.768  27.177 -0.9094 -0.0331  0.1271
   13mA      Am 4225  10.346   8.760  27.546  0.3472 -0.3402 -0.5549
   14mB      Bm 4226  10.489   8.616  27.860  0.2362  0.0241  0.2356
   15mC      Cm 4227  10.679   8.395  28.087 -0.3987  0.6567  0.4231
   16mC      Cm 4228  11.034   8.214  28.201  0.4679 -0.3114  0.0954
   17mR      Rm 4229  10.715   8.079  28.190 -0.7357  0.4264  0.3898
   18mB      Bm 4230  11.393   8.140  28.177 -0.1449 -0.1717  0.7575
   19mA      Am 4231  11.728   8.056  28.047  0.5912 -0.5108  0.3220
   20mB      Bm 4232  11.916   7.949  27.748 -0.3844 -0.7994 -0.1096
   21mC      Cm 4233  11.976   7.859  27.392  0.9837  0.0489  0.3272
   22mC      Cm 4234  11.895   7.885  26.991 -0.9585  0.5633 -0.9507
   23mR      Rm 4235  11.947   7.608  27.162 -0.5116  0.1719 -0.4811
   24mB      Bm 4236  11.720   8.026  26.697  0.2884  0.0246  0.5284
   25mA      Am 4237  11.445   8.101  26.456  0.1895 -0.7104  0.5456
   26mB      Bm 4238  11.081   8.103  26.405  0.4491  0.7713  0.5435
   27mC      Cm 4239  10.719   8.061  26.442  1.0187 -0.8038 -0.3468
   28mC      Cm 4240  10.373   8.069  26.657 -0.2948  0.5482  0.9575
   29mR      Rm 4241  10.468   7.837  26.424 -0.4375 -0.1771 -1.5106
   30mB      Bm 4242  10.163   8.125  26.965 -0.0930  0.0711  0.6932
   31mA      Am 4243  10.024   8.101  27.325 -0.2956  1.0200  0.8357
   32mB      Bm 4244  10.087   7.951  27.661  0.1033 -0.4107 -0.4683
   33mC      Cm 4245  10.264   7.764  27.923 -0.1600  0.3779 -0.0658
   34mC      Cm 4246  10.587   7.638  28.141 -0.2055  0.2440 -0.9260
   35mR      Rm 4247  10.333   7.443  28.034 -0.2313  0.1866 -0.0700
   36mB      Bm 4248  10.952   7.624  28.223 -0.4077  0.6714 -1.0184
   37mA      Am 4249  11.313   7.559  28.156  0.3499 -0.6561 -0.3225
   38mB      Bm 4250  11.558   7.437  27.894 -0.6540 -0.2981 -0.0974
   39mC      Cm 4251  11.733   7.294  27.593  0.8785  0.2717 -0.3524
   40mC      Cm 4252  11.746   7.256  27.189  0.6931 -0.0543  0.2400
   41mR      Rm 4253  11.782   7.009  27.420  0.3563 -0.1156 -0.6688
   42mB      Bm 4254  11.677   7.347  26.838 -0.3958 -0.8213 -0.4119
   43mA      Am 4255  11.467   7.434  26.541  0.4265 -0.1404 -1.0519
   44mB      Bm 4256  11.126   7.449  26.407  0.2316  0.4484  0.7114
   45mC      Cm 4257  10.769   7.382  26.406  0.3601 -0.3958 -0.5961
   46mC      Cm 4258  10.398   7.365  26.586 -0.2380 -0.0513  0.4421
   47mR      Rm 4259  10.529   7.141  26.372 -1.5446  0.3630  0.2629
   48mB      Bm 4260  10.149   7.424  26.851  0.4855 -0.4622 -0.4635
   49mA      Am 4261   9.993   7.429  27.189  0.1737  0.2487 -0.6060
   50mB      Bm 4262  10.020   7.326  27.547 -0.2771  0.9940 -0.1994
   51mC      Cm 4263  10.132   7.155  27.862  0.4468  0.1073  1.2576
   52mC      Cm 4264  10.417   7.057  28.131  0.4168 -0.6571 -0.6423
   53mR      Rm 4265  10.132   6.888  28.059  0.9789  0.8575  1.2992
   54mB      Bm 4266  10.771   7.044  28.251 -0.0376  0.0735 -0.3238
   55mA      Am 4267  11.142   6.982  28.276 -0.1439 -0.2290  0.4181
   56mB      Bm 4268  11.396   6.832  28.059 -0.2590 -0.8615  0.4519
   57mC      Cm 4269  11.568   6.678  27.771 -0.1689 -0.2289  0.1557
   58mC      Cm 4270  11.677   6.626  27.377 -0.4674  0.6550 -0.0039
   59mR      Rm 4271  11.596   6.384  27.598  0.0831 -0.3630  0.3893
   60mB      Bm 4272  11.650   6.719  27.018 -0.0235  0.1060 -0.7649
   61mA      Am 4273  11.497   6.798  26.695 -0.0980 -0.1650  0.2959
   62mB      Bm 4274  11.186   6.828  26.514 -0.0480 -0.1490  1.4033
   63mC      Cm 4275  10.824   6.801  26.457 -0.6562  0.5835  0.0242
   64mC      Cm 4276  10.431   6.825  26.561  0.8248 -0.8754  0.3922
   65mR      Rm 4277  10.574   6.587  26.380  0.2064 -1.1920  1.3592
   66mB      Bm 4278  10.144   6.890  26.788 -0.0356  0.5441 -0.0247
   67mA      Am 4279   9.931   6.893  27.094  0.8638  0.3281 -0.3777
   68mB      Bm 4280   9.934   6.788  27.439 -0.3230  0.6056  0.3088
   69mC      Cm 4281  10.022   6.628  27.760  1.5375 -0.7544  0.1949
   70mC      Cm 4282  10.284   6.515  28.051 -0.1418 -0.0109  0.4371
   71mR      Rm 4283  10.029   6.328  27.921 -0.2037  0.1851  0.1462
   72mB      Bm 4284  10.633   6.493  28.203 -0.1760  0.5972 -1.1343
   73mA      Am 4285  10.998   6.429  28.243 -0.1140  0.0206  0.3905
   74mB      Bm 4286  11.323   6.292  28.097 -0.4186 -0.4593  0.1983
   75mC      Cm 4287  11.578   6.132  27.876  0.0532 -0.3311 -0.0898
   76mC      Cm 4288  11.730   6.071  27.502  0.6924  0.6295 -0.1109
   77mR      Rm 4289  11.674   5.835  27.737  0.6792 -0.5533 -0.2159
   78mB      Bm 4290  11.733   6.140  27.132 -0.4817 -0.4113 -0.4639
   79mA      Am 4291  11.628   6.187  26.772  0.2375 -0.1697  1.2340
   80mB      Bm 4292  11.312   6.194  26.556  0.1127 -0.4793 -0.5314
   81mC      Cm 4293  10.963   6.167  26.445 -0.8068 -0.0517  0.2451
   82mC      Cm 4294  10.554   6.214  26.501 -0.4844 -0.0093 -0.4186
   83mR      Rm 4295  10.725   5.956  26.358 -0.3034  1.1025  0.3074
   84mB      Bm 4296  10.249   6.279  26.693  0.3526 -0.0304  0.1296
   85mA      Am 4297   9.997   6.286  26.962  0.6265  0.5707  0.7695
   86mB      Bm 4298   9.929   6.178  27.314 -0.0671 -0.8534 -0.2129
   87mC      Cm 4299   9.964   6.025  27.648  0.0576  0.7999 -1.0873
   88mC      Cm 4300  10.164   5.917  27.991  0.0961 -0.0664  0.3364
   89mR      Rm 4301   9.976   5.715  27.788 -0.4955 -1.4604  0.9832
   90mB      Bm 4302  10.456   5.936  28.213 -1.0100  0.4965  0.0674
   91mA      Am 4303  10.808   5.894  28.318  0.5473  0.5465 -0.3819
   92mB      Bm 4304  11.156   5.787  28.266 -0.6779 -0.8518  0.8569
   93mC      Cm 4305  11.446   5.623  28.094  0.3012  0.6621  0.4738
   94mC      Cm 4306  11.681   5.501  27.776  0.4896 -0.8896  0.1070
   95mR      Rm 4307  11.609   5.337  28.056  0.6609  0.6559 -0.3763
   96mB      Bm 4308  11.781   5.442  27.432  0.7404 -0.1785  0.0899
   97mA      Am 4309  11.776   5.309  27.090  0.1308  0.1221 -0.1217
   98mB      Bm 4310  11.602   5.097  26.840 -0.3064  0.2184 -0.5174
   99mC      Cm 4311  11.379   4.862  26.660  1.7369 -0.0274  0.9433
  100mC      Cm 4312  11.008   4.725  26.563  0.4250  0.1762 -0.5002
  101mR      Rm 4313  11.287   4.538  26.634 -0.6831  0.3543 -0.8063
  102mB      Bm 4314  10.641   4.726  26.585 -0.3797 -0.5716  0.8556
  103mA      Am 4315  10.288   4.722  26.671 -0.1480  0.3983  0.9854
  104mB      Bm 4316  10.024   4.746  26.933  1.0792  0.7700  0.8649
  105mC      Cm 4317   9.851   4.794  27.256  0.1124  0.2599 -0.3860
  106mC      Cm 4318   9.735   4.995  27.596 -0.8468  0.5992  0.6616
  107mR      Rm 4319   9.797   4.667  27.558  0.9624 -0.8846  1.3782
  108tB      Bt 4320   9.735   5.259  27.850  0.2151  0.3064  0.1395
    1hA      Ah 4321   4.916   0.271  24.840 -0.5577 -0.1549 -0.0098
    2mB      Bm 4322   5.244   0.305  24.682 -0.2765 -0.1535  0.4351
    3mC      Cm 4323   5.521   0.274  24.431 -0.1870  0.7848 -0.1254
    4mC      Cm 4324   5.709   0.325  24.074  0.3067  0.7674 -1.0591
    5mR      Rm 4325   5.745   0.064  24.289 -0.6521 -2.4998 -0.3632
    6mB      Bm 4326   5.721   0.391  23.707  0.3602  0.1578  0.5257
    7mA      Am 4327   5.650   0.371  23.347 -0.9122  0.0471 -0.8285
    8mB      Bm 4328   5.434   0.211  23.093  0.5796 -0.0705  0.4337
    9mC      Cm 4329   5.169  -0.005  22.954  0.2868  0.0305  0.3348
   10mC      Cm 4330   4.793  -0.166  22.955  0.2540  0.4183  0.1333
   11mR      Rm 4331   5.088  -0.325  22.922  0.8395  0.0571  0.1758
   12mB      Bm 4332   4.429  -0.211  23.056  0.4969  0.1362 -0.7059
   13mA      Am 4333   4.125  -0.250  23.263  0.0201  1.1803  0.5661
   14mB      Bm 4334   4.001  -0.311  23.606 -0.5038 -0.5663 -0.5193
   15mC      Cm 4335   4.017  -0.398  23.958 -0.3080 -0.0648 -0.1716
   16mC      Cm 4336   4.164  -0.377  24.340 -0.1298 -0.6042 -0.7465
   17mR      Rm 4337   4.045  -0.655  24.188 -0.7463 -0.1239  2.5341
   18mB      Bm 4338   4.399  -0.284  24.602 -0.0105  0.5577  0.5060
   19mA      Am 4339   4.712  -0.249  24.782 -0.1793 -0.4352 -0.5308
   20mB      Bm 4340   5.080  -0.305  24.833 -0.0897  0.3936  0.4289
   21mC      Cm 4341   5.431  -0.418  24.788  0.2240 -0.2567 -0.4524
   22mC      Cm 4342   5.754  -0.507  24.564 -0.4062  0.5025  0.5141
   23mR      Rm 4343   5.632  -0.693  24.816  1.2283 -0.0499  0.3796
   24mB      Bm 4344   5.972  -0.507  24.258 -0.5475 -0.0985 -0.1732
   25mA      Am 4345   6.095  -0.551  23.916  0.7490 -0.1654 -0.0137
   26mB      Bm 4346   6.020  -0.675  23.569  0.2586 -0.0481 -0.3353
   27mC      Cm 4347   5.847  -0.833  23.289  0.4913  0.1788 -0.7454
   28mC      Cm 4348   5.515  -0.918  23.048  0.4107 -0.2661 -0.5987
   29mR      Rm 4349   5.741  -1.134  23.177  0.5281 -0.0098  0.4800
   30mB      Bm 4350   5.157  -0.880  22.970  0.4488  0.2287 -0.1380
   31mA      Am 4351   4.792  -0.863  23.032  0.0881  0.2050  0.5582
   32mB      Bm 4352   4.510  -0.864  23.276  0.6214 -0.1217 -0.0075
   33mC      Cm 4353   4.336  -0.924  23.604  0.7224  0.0955  0.3833
   34mC      Cm 4354   4.301  -0.923  24.019 -0.7831  1.2846  0.5430
   35mR      Rm 4355   4.214  -1.172  23.802  0.6791 -1.6757  0.7817
   36mB      Bm 4356   4.419  -0.852  24.359  0.2670  0.0560 -1.3921
   37mA      Am 4357   4.643  -0.816  24.657 -0.4051 -0.7570  0.6606
   38mB      Bm 4358   4.980  -0.894  24.768  0.5763  0.9896 -0.3479
   39mC      Cm 4359   5.333  -1.038  24.767  0.3988 -0.5053 -0.4967
   40mC      Cm 4360   5.701  -1.113  24.606 -0.2232 -0.3037  0.3459
   41mR      Rm 4361   5.512  -1.331  24.793 -0.4129 -0.5079 -0.0749
   42mB      Bm 4362   5.955  -1.096  24.337 -0.5656  0.2821  0.3786
   43mA      Am 4363   6.139  -1.134  24.015  0.1054  0.2615 -0.3141
   44mB      Bm 4364   6.135  -1.279  23.669 -0.4223 -0.3813  0.3057
   45mC      Cm 4365   6.006  -1.461  23.368  0.0119 -0.4858  0.6664
   46mC      Cm 4366   5.713  -1.509  23.081 -0.0243 -0.0007 -0.5489
   47mR      Rm 4367   5.902  -1.756  23.222 -0.5765  0.1128  0.8818
   48mB      Bm 4368   5.376  -1.435  22.957  0.4820 -0.4902 -0.3223
   49mA      Am 4369   5.009  -1.379  22.930  0.3848 -0.1624 -0.0024
   50mB      Bm 4370   4.692  -1.414  23.115  0.3611  0.2063  0.1472
   51mC      Cm 4371   4.462  -1.503  23.383 -0.4136  0.3394  0.0425
   52mC      Cm 4372   4.355  -1.495  23.772 -0.4709  0.0229 -0.7357
   53mR      Rm 4373   4.317  -1.754  23.547 -0.5312 -0.1311 -0.0845
   54mB      Bm 4374   4.415  -1.425  24.132 -0.0898 -0.5596  0.7781
   55mA      Am 4375   4.579  -1.408  24.465  0.1295 -0.4589 -0.6327
   56mB      Bm 4376   4.893  -1.489  24.655  0.3664  0.3876 -0.7164
   57mC      Cm 4377   5.230  -1.613  24.723 -0.7507  0.1628  0.3096
   58mC      Cm 4378   5.628  -1.693  24.646  0.4694  0.3700  0.0939
   59mR      Rm 4379   5.401  -1.905  24.771 -0.5988 -0.6344  0.7305
   60mB      Bm 4380   5.945  -1.706  24.451 -0.2048 -0.4081  0.7013
   61mA      Am 4381   6.184  -1.767  24.180 -0.0394 -0.1877 -0.1748
   62mB      Bm 4382   6.220  -1.914  23.835  0.1385 -0.1536 -0.7230
   63mC      Cm 4383   6.131  -2.082  23.513 -0.9766 -0.3288 -1.4333
   64mC      Cm 4384   5.882  -2.151  23.198  0.6627  0.2894  1.4946
   65mR      Rm 4385   6.039  -2.382  23.387  1.0120  0.3167  0.4408
   66mB      Bm 4386   5.579  -2.087  23.001 -0.6271  0.0312 -0.5107
   67mA      Am 4387   5.222  -2.025  22.917  0.4640  0.3518 -0.2304
   68mB      Bm 4388   4.877  -2.013  23.088 -0.5077  0.1134  0.0067
   69mC      Cm 4389   4.623  -2.067  23.349 -0.1289 -0.0051  0.0052
   70mC      Cm 4390   4.484  -2.066  23.738 -0.9917 -0.5508  0.4932
   71mR      Rm 4391   4.435  -2.299  23.498  0.7691 -1.1162 -0.4591
   72mB      Bm 4392   4.519  -2.029  24.101  0.8955  0.1340 -0.4596
   73mA      Am 4393   4.636  -2.044  24.449  0.6534 -0.3124 -0.4014
   74mB      Bm 4394   4.924  -2.152  24.674  0.5855 -0.7407  0.0205
   75mC      Cm 4395   5.249  -2.290  24.806  0.2941 -0.8034 -0.3953
   76mC      Cm 4396   5.648  -2.382  24.772 -0.6856 -0.0200  0.3810
   77mR      Rm 4397   5.408  -2.589  24.880  0.1316 -1.4689 -0.4851
   78mB      Bm 4398   5.969  -2.367  24.578 -0.6978 -0.5607 -1.1868
   79mA      Am 4399   6.200  -2.399  24.293  0.0086  0.9724  0.6983
   80mB      Bm 4400   6.257  -2.512  23.944 -0.2719 -0.1828  0.0693
   81mC      Cm 4401   6.186  -2.681  23.620  0.9300  0.1457  0.1763
   82mC      Cm 4402   5.943  -2.746  23.299 -0.0857  0.2786 -0.6257
   83mR      Rm 4403   6.114  -2.985  23.481  0.6229 -0.4513 -0.5188
   84mB      Bm 4404   5.631  -2.684  23.090 -0.0954  0.2940  0.2941
   85mA      Am 4405   5.270  -2.648  23.016  0.4293  0.0653  0.3989
   86mB      Bm 4406   4.918  -2.669  23.130 -0.4796 -0.0119 -0.5950
   87mC      Cm 4407   4.615  -2.727  23.348  0.1802  0.4537 -0.4545
   88mC      Cm 4408   4.413  -2.708  23.705 -0.3697 -0.7413 -0.0660
   89mR      Rm 4409   4.441  -2.973  23.488 -0.0802 -1.1212  0.2957
   90mB      Bm 4410   4.385  -2.637  24.068  0.3904  0.4623  0.6482
   91mA      Am 4411   4.460  -2.609  24.429  0.2051  0.0428 -0.1610
   92mB      Bm 4412   4.705  -2.697  24.696  0.3114  0.5477 -0.2065
   93mC      Cm 4413   5.017  -2.856  24.838 -0.1376 -0.5906 -0.0649
   94mC      Cm 4414   5.411  -2.966  24.885 -0.5843 -0.2639  0.2507
   95mR      Rm 4415   5.136  -3.137  24.983  0.2944  0.2125 -0.1450
   96mB      Bm 4416   5.751  -2.983  24.736  0.3828 -0.2619  0.7431
   97mA      Am 4417   6.023  -3.036  24.481  0.3732  0.7895  0.4543
   98mB      Bm 4418   6.121  -3.164  24.145  0.4908 -0.3219 -0.6023
   99mC      Cm 4419   6.074  -3.301  23.800 -0.6866  0.3220 -0.5447
  100mC      Cm 4420   5.882  -3.339  23.445  0.4106 -0.8341  0.0151
  101mR      Rm 4421   5.977  -3.581  23.643  0.4620  1.0885  0.0542
  102mB      Bm 4422   5.609  -3.259  23.197 -0.2369 -0.0373  0.4125
  103mA      Am 4423   5.262  -3.207  23.074 -0.3504  0.4682 -0.1894
  104mB      Bm 4424   4.889  -3.239  23.137  0.1483  0.3538  0.0196
  105mC      Cm 4425   4.561  -3.316  23.298  0.6526  0.0627  0.5653
  106mC      Cm 4426   4.325  -3.318  23.632 -0.2154  0.7011  1.0848
  107mR      Rm 4427   4.388  -3.575  23.435  0.3351  0.2643 -1.2844
  108tB      Bt 4428   4.244  -3.228  23.981  0.1544  0.0832 -0.1478
    1hA      Ah 4429   2.759  12.263  23.216 -0.0385  0.2686  0.1618
    2mB      Bm 4430   2.645  12.532  22.994 -0.1544  0.5069 -0.4478
    3mC      Cm 4431   2.584  12.871  22.844 -0.5228 -0.4339  0.5758
    4mC      Cm 4432   2.688  13.247  22.717  0.3074 -0.7619  0.0427
    5mR      Rm 4433   2.419  13.163  22.897 -0.3076 -0.1656  0.8814
    6mB      Bm 4434   2.923  13.511  22.614 -0.9333 -0.1054 -0.4255
    7mA      Am 4435   3.202  13.761  22.642 -0.1659  0.0594 -0.5253
    8mB      Bm 4436   3.465  13.904  22.867  0.4463  0.0167  0.2037
    9mC      Cm 4437   3.687  13.967  23.152 -0.7338 -0.8453  0.0733
   10mC      Cm 4438   3.922  13.850  23.467  0.3715 -0.5203 -0.2431
   11mR      Rm 4439   3.673  14.079  23.476  0.1755  0.6443 -0.4292
   12mB      Bm 4440   4.104  13.613  23.680 -0.6385 -0.5342  0.6626
   13mA      Am 4441   4.164  13.316  23.871 -0.2148 -0.7177 -0.3113
   14mB      Bm 4442   3.999  13.007  24.002  0.7409  1.6285  0.2191
   15mC      Cm 4443   3.778  12.729  24.115  0.6189  0.5213  0.9309
   16mC      Cm 4444   3.458  12.483  24.063 -0.8857  0.0343 -1.1083
   17mR      Rm 4445   3.544  12.655  24.344 -0.7014  0.4184  0.9964
   18mB      Bm 4446   3.161  12.369  23.868  0.2045 -0.1983  0.0635
   19mA      Am 4447   2.849  12.359  23.681 -0.0960  0.4203 -0.4803
   20mB      Bm 4448   2.560  12.538  23.550 -0.2836 -0.4870  0.3766
   21mC      Cm 4449   2.304  12.804  23.474 -0.6165 -1.1025 -0.3323
   22mC      Cm 4450   2.173  13.178  23.361 -0.0676  0.3139  0.0532
   23mR      Rm 4451   2.046  12.988  23.607 -0.9999 -0.6687  0.2960
   24mB      Bm 4452   2.202  13.528  23.240 -0.3434 -0.0163 -1.2818
   25mA      Am 4453   2.312  13.875  23.226  0.1887 -0.0583  0.3055
   26mB      Bm 4454   2.492  14.150  23.396 -0.1556 -0.8013 -0.3234
   27mC      Cm 4455   2.695  14.327  23.654  0.1011  0.9893  0.3656
   28mC      Cm 4456   2.993  14.363  23.929  0.3255  0.2944 -0.3794
   29mR      Rm 4457   2.674  14.454  23.963 -0.0153 -0.4348  0.1347
   30mB      Bm 4458   3.299  14.277  24.113 -0.4145  0.8607 -0.5730
   31mA      Am 4459   3.537  14.083  24.317 -1.0459  0.4097  0.3935
   32mB      Bm 4460   3.569  13.781  24.516  0.0854 -0.8371  0.2214
   33mC      Cm 4461   3.508  13.470  24.704 -0.5113 -0.2659  0.8678
   34mC      Cm 4462   3.324  13.104  24.752  0.5642 -0.0900  0.1684
   35mR      Rm 4463   3.354  13.342  24.987  1.4018 -1.0804 -1.1699
   36mB      Bm 4464   3.095  12.823  24.647  0.0676 -0.3266  0.4783
   37mA      Am 4465   2.784  12.655  24.529  0.2073 -0.2888  0.0223
   38mB      Bm 4466   2.419  12.688  24.488  0.2577  0.9465 -0.5257
   39mC      Cm 4467   2.074  12.834  24.494  0.8258  0.4954 -0.4105
   40mC      Cm 4468   1.817  13.143  24.408  0.8106 -0.6671 -0.2753
   41mR      Rm 4469   1.818  12.960  24.687  0.0147  0.9858  0.5802
   42mB      Bm 4470   1.738  13.500  24.295  0.7109  0.6551  0.3368
   43mA      Am 4471   1.760  13.864  24.257  0.0009  0.2393 -0.4752
   44mB      Bm 4472   1.907  14.186  24.352 -0.1313 -0.1933  0.1133
   45mC      Cm 4473   2.100  14.457  24.516 -0.3501 -1.1606  0.1678
   46mC      Cm 4474   2.424  14.666  24.654 -1.0542 -0.0623  0.5238
   47mR      Rm 4475   2.117  14.639  24.794 -0.4683  0.4636  1.3277
   48mB      Bm 4476   2.769  14.725  24.767  0.3921 -0.2598 -0.6030
   49mA      Am 4477   3.069  14.663  24.951 -0.5282 -0.0287  0.4748
   50mB      Bm 4478   3.275  14.479  25.203  0.2446 -0.1991  0.1937
   51mC      Cm 4479   3.359  14.222  25.455  0.2845 -0.7438  0.3302
   52mC      Cm 4480   3.341  13.856  25.627 -0.1601  0.1374 -0.4339
   53mR      Rm 4481   3.325  14.156  25.782 -0.0763 -0.1286 -1.1826
   54mB      Bm 4482   3.223  13.503  25.644  0.3736 -0.1752  0.7328
   55mA      Am 4483   3.003  13.217  25.644 -0.1664 -0.3667 -0.9032
   56mB      Bm 4484   2.681  13.068  25.674  0.3260 -0.3299  0.3523
   57mC      Cm 4485   2.316  13.040  25.716  0.2680  1.3136  0.1338
   58mC      Cm 4486   1.916  13.093  25.626 -0.7469  0.1181 -1.3926
   59mR      Rm 4487   2.055  13.084  25.938  0.2475  0.3463  0.3299
   60mB      Bm 4488   1.656  13.257  25.426  0.3911  0.1817  0.3673
   61mA      Am 4489   1.439  13.496  25.252  0.1014 -0.2919 -0.3172
   62mB      Bm 4490   1.353  13.860  25.188 -0.0285  0.7679 -0.2434
   63mC      Cm 4491   1.355  14.229  25.210  0.2317 -1.6132 -0.2003
   64mC      Cm 4492   1.553  14.588  25.200  0.3335 -0.5793 -0.1410
   65mR      Rm 4493   1.299  14.505  25.408 -0.6109  1.5374  1.4609
   66mB      Bm 4494   1.837  14.825  25.171  0.1460  0.7667  0.2869
   67mA      Am 4495   2.156  14.992  25.229 -0.3447 -0.6216  0.1293
   68mB      Bm 4496   2.455  14.966  25.464  0.0099 -0.2653  0.2786
   69mC      Cm 4497   2.683  14.854  25.740  0.8014  0.0987 -0.0842
   70mC      Cm 4498   2.841  14.606  26.025 -0.4821 -0.1681 -0.0093
   71mR      Rm 4499   2.742  14.923  26.066 -1.0779 -0.3363 -0.7183
   72mB      Bm 4500   2.878  14.294  26.220  1.0293 -0.2820 -0.4497
   73mA      Am 4501   2.802  14.007  26.427 -0.4536  0.5612 -0.0325
   74mB      Bm 4502   2.551  13.821  26.617  0.6621 -0.9057  0.4108
   75mC      Cm 4503   2.225  13.699  26.763  0.9198 -0.0582  0.1606
   76mC      Cm 4504   1.818  13.634  26.749 -0.7936 -0.5413 -0.2568
   77mR      Rm 4505   2.001  13.765  27.007  0.9448  0.7702  1.8187
   78mB      Bm 4506   1.484  13.651  26.583  0.5145 -0.2112  1.3748
   79mA      Am 4507   1.193  13.778  26.392 -0.0099  0.3257  0.4017
   80mB      Bm 4508   1.038  14.070  26.234  0.1576 -0.0062 -0.7947
   81mC      Cm 4509   0.961  14.415  26.121 -0.4489 -0.3244  0.0353
   82mC      Cm 4510   1.044  14.775  25.947 -0.6623  0.5971  1.0560
   83mR      Rm 4511   0.836  14.713  26.213 -1.3521 -0.0141 -0.6197
   84mB      Bm 4512   1.269  15.039  25.803  0.1628 -0.2450 -0.5187
   85mA      Am 4513   1.553  15.269  25.765 -0.2024  0.0344 -0.2933
   86mB      Bm 4514   1.883  15.349  25.900 -0.0712 -0.3675  0.5915
   87mC      Cm 4515   2.182  15.340  26.111  1.0000  0.4947  0.9349
   88mC      Cm 4516   2.450  15.133  26.344 -0.2083 -0.9158 -0.4206
   89mR      Rm 4517   2.310  15.436  26.412 -0.6782  0.1197 -0.9552
   90mB      Bm 4518   2.590  14.834  26.488 -0.1242  0.3045 -0.1419
   91mA      Am 4519   2.607  14.524  26.665 -0.6031 -0.0911 -0.2791
   92mB      Bm 4520   2.413  14.282  26.869  1.2162 -0.1086  1.0157
   93mC      Cm 4521   2.131  14.130  27.061  0.5017  1.5060 -0.3959
   94mC      Cm 4522   1.739  14.023  27.131 -0.8781 -0.5676  0.0405
   95mR      Rm 4523   1.944  14.194  27.337  0.4194  0.5844  0.9136
   96mB      Bm 4524   1.389  13.980  27.042  0.6542 -0.0367 -0.1637
   97mA      Am 4525   1.058  14.052  26.898  0.4308 -0.0665  0.5989
   98mB      Bm 4526   0.818  14.292  26.734  0.1876 -0.1239  0.0797
   99mC      Cm 4527   0.691  14.608  26.589 -0.0081 -0.2414  0.7042
  100mC      Cm 4528   0.704  14.960  26.389 -0.7976  0.3428 -0.2367
  101mR      Rm 4529   0.560  14.903  26.684  1.3789 -0.8307 -0.3196
  102mB      Bm 4530   0.849  15.223  26.175 -0.0053 -0.5168  0.4738
  103mA      Am 4531   1.061  15.478  26.004 -0.0707 -1.1440  0.3919
  104mB      Bm 4532   1.387  15.661  25.993 -0.7991  0.2005 -0.2330
  105mC      Cm 4533   1.735  15.764  26.088  1.3011 -0.1841  0.8242
  106mC      Cm 4534   2.125  15.711  26.177 -1.0644 -0.2084  0.2208
  107mR      Rm 4535   1.914  15.922  26.324 -0.9715  0.2943  0.8211
  108tB      Bt 4536   2.478  15.688  26.064 -0.0814  0.4593  0.2782
    1hA      Ah 4537   1.459   2.456  14.795 -0.3077 -0.6223 -0.2164
    2mB      Bm 4538   1.295   2.744  14.966  0.0045  0.2356  0.7859
    3mC      Cm 4539   1.143   2.970  15.217 -0.2141  0.7496  0.9403
    4mC      Cm 4540   1.159   3.167  15.579 -0.2863 -0.2262 -0.5920
    5mR      Rm 4541   0.911   2.984  15.453 -0.7033  1.0271  0.6678
    6mB      Bm 4542   1.333   3.275  15.885 -0.2316 -0.8650 -0.0945
    7mA      Am 4543   1.532   3.278  16.197 -0.1711  0.2913  0.6431
    8mB      Bm 4544   1.731   3.076  16.441  0.6739  0.6570  0.3922
    9mC      Cm 4545   1.899   2.793  16.620 -1.1280 -0.2184  0.3903
   10mC      Cm 4546   2.141   2.462  16.656  0.5206 -0.4717  0.7950
   11mR      Rm 4547   1.845   2.501  16.799 -0.8181  1.4810 -0.7022
   12mB      Bm 4548   2.352   2.210  16.491  0.0126  0.1805 -0.5415
   13mA      Am 4549   2.467   1.945  16.259  0.1745 -0.6783  0.1619
   14mB      Bm 4550   2.358   1.731  15.979 -0.1339  0.0159  0.5195
   15mC      Cm 4551   2.145   1.595  15.702 -0.4218  0.2273 -0.8645
   16mC      Cm 4552   1.878   1.631  15.397  0.1392 -0.1346 -0.3052
   17mR      Rm 4553   1.867   1.414  15.653  0.3961 -0.2723  0.3528
   18mB      Bm 4554   1.648   1.812  15.175  0.4153 -0.0460  0.8875
   19mA      Am 4555   1.370   2.028  15.070  0.0422 -0.3839 -0.9550
   20mB      Bm 4556   1.099   2.258  15.178 -0.5567  0.6562  0.0837
   21mC      Cm 4557   0.871   2.469  15.388 -1.0897  0.4932  0.4912
   22mC      Cm 4558   0.787   2.703  15.715  0.3868 -0.9404 -1.4702
   23mR      Rm 4559   0.609   2.451  15.601 -0.8236  0.0236  0.5368
   24mB      Bm 4560   0.885   2.891  16.021  0.0808  0.2578 -0.0483
   25mA      Am 4561   1.045   2.941  16.351  0.8001 -0.6881  0.6343
   26mB      Bm 4562   1.230   2.783  16.637 -0.6495  0.0892  0.0475
   27mC      Cm 4563   1.409   2.540  16.855  0.1247  0.2880 -0.0516
   28mC      Cm 4564   1.640   2.213  16.912  0.0503 -0.7797  0.8136
   29mR      Rm 4565   1.341   2.271  17.048 -0.6427 -0.6925  0.9668
   30mB      Bm 4566   1.869   1.940  16.785 -0.5292  0.4708 -0.5339
   31mA      Am 4567   1.980   1.667  16.574 -0.2078 -0.3283 -0.0758
   32mB      Bm 4568   1.904   1.437  16.288  0.5808  0.5450 -0.9797
   33mC      Cm 4569   1.727   1.251  16.031  0.2082 -0.4472 -0.6768
   34mC      Cm 4570   1.487   1.236  15.704 -0.3454 -0.6611 -0.1260
   35mR      Rm 4571   1.471   1.032  15.973 -0.1355 -0.0427  0.2717
   36mB      Bm 4572   1.269   1.387  15.448  0.0830  0.7045  0.5090
   37mA      Am 4573   1.011   1.591  15.271  0.1158  0.0840  0.7255
   38mB      Bm 4574   0.747   1.831  15.330  0.1896 -0.9551 -0.1952
   39mC      Cm 4575   0.521   2.054  15.527  0.6428 -0.2984  0.9149
   40mC      Cm 4576   0.408   2.299  15.843  0.7079 -0.7850 -0.0239
   41mR      Rm 4577   0.245   2.027  15.721 -0.2686  0.0073 -0.6478
   42mB      Bm 4578   0.476   2.497  16.153 -0.1070 -0.4172  0.6100
   43mA      Am 4579   0.599   2.589  16.500 -0.0263 -0.6895 -0.5970
   44mB      Bm 4580   0.755   2.477  16.820  0.3918  0.3927  0.0271
   45mC      Cm 4581   0.898   2.276  17.083  0.9248  0.0859 -0.4187
   46mC      Cm 4582   1.153   1.975  17.193 -0.3260  0.2448  1.1369
   47mR      Rm 4583   0.832   2.018  17.298  0.8214  0.1573  0.7391
   48mB      Bm 4584   1.411   1.706  17.136  0.3928  0.0040 -0.8999
   49mA      Am 4585   1.574   1.414  16.967  0.7582 -0.0381  0.3892
   50mB      Bm 4586   1.528   1.160  16.701  0.0117  0.2408 -0.4284
   51mC      Cm 4587   1.378   0.949  16.437  0.1711 -0.6219 -1.3052
   52mC      Cm 4588   1.155   0.883  16.111  0.8079  1.3525  0.8709
   53mR      Rm 4589   1.160   0.679  16.382  0.3391  0.6441 -0.1021
   54mB      Bm 4590   0.950   1.001  15.823 -0.2730 -0.0444 -0.1104
   55mA      Am 4591   0.696   1.188  15.628  0.7477 -0.0748  0.3911
   56mB      Bm 4592   0.411   1.416  15.635 -0.0260  0.1235 -0.6046
   57mC      Cm 4593   0.143   1.634  15.773  0.3423 -0.7662 -0.4146
   58mC      Cm 4594   0.010   1.929  16.035  0.9391  0.5776  1.2178
   59mR      Rm 4595  -0.146   1.630  15.953 -1.1342 -0.4611 -1.2526
   60mB      Bm 4596   0.050   2.146  16.329 -0.1392  0.3903 -0.7200
   61mA      Am 4597   0.138   2.292  16.658  0.0170 -0.1847  0.1477
   62mB      Bm 4598   0.286   2.204  16.988 -0.2888 -0.3157  0.1918
   63mC      Cm 4599   0.436   2.005  17.264 -0.4098  0.7405 -0.6055
   64mC      Cm 4600   0.691   1.712  17.406 -0.5056 -0.3453  0.0430
   65mR      Rm 4601   0.366   1.771  17.494  0.9131 -0.8235 -0.3281
   66mB      Bm 4602   0.945   1.457  17.382  0.3624  0.3116 -0.2421
   67mA      Am 4603   1.131   1.167  17.262  0.4838  0.7842  0.3885
   68mB      Bm 4604   1.118   0.876  17.023 -0.6065 -0.4098  0.6230
   69mC      Cm 4605   0.988   0.649  16.753  0.6124 -0.4762  0.3523
   70mC      Cm 4606   0.803   0.577  16.400 -0.7463  1.0913 -0.1235
   71mR      Rm 4607   0.767   0.404  16.690  0.8302 -0.1119  0.1398
   72mB      Bm 4608   0.600   0.672  16.101  0.9116 -0.7706  0.3424
   73mA      Am 4609   0.339   0.832  15.897  0.1220 -0.2996  0.8461
   74mB      Bm 4610   0.047   1.044  15.905 -0.1912  0.9162 -0.8297
   75mC      Cm 4611  -0.234   1.254  16.020 -0.3820 -0.7955 -0.5647
   76mC      Cm 4612  -0.414   1.545  16.248  0.0117 -0.1690 -0.2411
   77mR      Rm 4613  -0.537   1.239  16.170 -0.4954  0.8669 -0.0698
   78mB      Bm 4614  -0.416   1.804  16.519  0.1852 -0.0922  0.0987
   79mA      Am 4615  -0.349   1.973  16.848 -0.0166  0.3095  0.5037
   80mB      Bm 4616  -0.208   1.919  17.189  0.4250 -0.1711  0.6974
   81mC      Cm 4617  -0.048   1.735  17.462 -0.1837  0.4964  0.6477
   82mC      Cm 4618   0.219   1.470  17.636  0.0046 -0.4595 -0.5241
   83mR      Rm 4619  -0.108   1.509  17.709 -1.3121 -1.0873 -0.6454
   84mB      Bm 4620   0.472   1.209  17.614 -0.0913  0.9549 -0.0874
   85mA      Am 4621   0.649   0.898  17.505 -0.2223  0.4550 -0.3932
   86mB      Bm 4622   0.655   0.602  17.283  0.1236  0.1343  0.5184
   87mC      Cm 4623   0.553   0.362  17.029 -0.8787 -0.4068 -0.1487
   88mC      Cm 4624   0.405   0.254  16.667  0.1171 -0.2949  0.2081
   89mR      Rm 4625   0.375   0.086  16.963  0.2448 -0.3258  0.2721
   90mB      Bm 4626   0.213   0.318  16.349 -0.3215 -0.1012 -0.7146
   91mA      Am 4627  -0.050   0.447  16.112 -0.2205  0.1333 -1.0071
   92mB      Bm 4628  -0.351   0.662  16.105 -0.4679 -0.5107 -0.4961
   93mC      Cm 4629  -0.636   0.879  16.200  0.4341 -0.1751  1.9249
   94mC      Cm 4630  -0.790   1.166  16.449 -0.3456 -0.8497  0.1246
   95mR      Rm 4631  -0.939   0.871  16.358 -0.4724  0.1157 -0.4451
   96mB      Bm 4632  -0.785   1.422  16.716  0.2264 -0.1602  0.1524
   97mA      Am 4633  -0.739   1.597  17.041  0.6620  0.8868  0.2200
   98mB      Bm 4634  -0.626   1.570  17.390 -0.0587  0.0857 -0.2135
   99mC      Cm 4635  -0.493   1.432  17.706 -0.5886 -0.3588  0.4658
  100mC      Cm 4636  -0.234   1.200  17.925  0.4837 -0.1929 -0.9204
  101mR      Rm 4637  -0.575   1.249  17.976 -0.4172  0.1447 -0.4913
  102mB      Bm 4638   0.052   0.963  17.964  0.7649 -0.2640  0.3356
  103mA      Am 4639   0.266   0.667  17.932  0.2098 -0.1251  0.0834
  104mB      Bm 4640   0.321   0.323  17.805 -1.0145 -0.3630  0.1020
  105mC      Cm 4641   0.256  -0.015  17.656  0.2055  0.4036  0.3699
  106mC      Cm 4642   0.106  -0.291  17.395  0.5562 -1.3118  0.2885
  107mR      Rm 4643   0.126  -0.311  17.727  0.7044  0.5368  0.5745
  108tB      Bt 4644  -0.071  -0.418  17.093  0.0507  0.5407 -0.0613
    1hA      Ah 4645   2.133   5.669  28.383  0.6225  1.4485  0.2016
    2mB      Bm 4646   1.894   5.891  28.539  0.1822 -0.1485  1.1151
    3mC      Cm 4647   1.726   6.109  28.775 -0.8020 -1.2483 -1.1143
    4mC      Cm 4648   1.737   6.424  29.045  1.1098  0.1105  0.3537
    5mR      Rm 4649   1.581   6.122  29.078  0.4716  0.2577 -0.2563
    6mB      Bm 4650   1.907   6.682  29.249  0.6129 -0.9465  0.0150
    7mA      Am 4651   2.149   6.859  29.463 -0.3041  0.9443 -1.0195
    8mB      Bm 4652   2.453   6.886  29.693  1.0102 -0.6058 -0.0358
    9mC      Cm 4653   2.723   6.806  29.942  0.0412 -0.1658  0.3504
   10mC      Cm 4654   3.044   6.587  30.063 -1.4323  0.7821  0.4326
   11mR      Rm 4655   2.775   6.656  30.240  0.8409  0.4118 -0.3991
   12mB      Bm 4656   3.324   6.347  30.014  0.7029  0.2990  0.1872
   13mA      Am 4657   3.530   6.063  29.920  0.6198 -0.4867  0.1950
   14mB      Bm 4658   3.506   5.707  29.783  1.6313 -0.3965 -0.0113
   15mC      Cm 4659   3.354   5.389  29.640 -0.1585  1.0657  0.0722
   16mC      Cm 4660   3.091   5.179  29.412  0.3845 -0.3247 -0.5680
   17mR      Rm 4661   3.185   5.101  29.727  1.2614 -0.1093  0.0572
   18mB      Bm 4662   2.823   5.158  29.157 -0.6635 -0.7576  0.1960
   19mA      Am 4663   2.495   5.195  28.977  0.4904  0.2342 -0.0891
   20mB      Bm 4664   2.156   5.344  29.008 -0.3719  0.9144  0.2320
   21mC      Cm 4665   1.867   5.531  29.156  0.8910 -0.9940  0.7713
   22mC      Cm 4666   1.710   5.853  29.362 -0.0499  0.8914  0.3956
   23mR      Rm 4667   1.639   5.522  29.417  1.1432 -0.2035 -0.8053
   24mB      Bm 4668   1.739   6.185  29.524 -0.9435  0.4489 -0.1330
   25mA      Am 4669   1.853   6.413  29.777 -0.7816 -0.9013 -0.8344
   26mB      Bm 4670   2.072   6.477  30.070  0.8784 -0.2622 -0.1082
   27mC      Cm 4671   2.313   6.413  30.340  0.1350  0.5637  0.6944
   28mC      Cm 4672   2.667   6.281  30.502  0.9408 -0.9492  0.6217
   29mR      Rm 4673   2.348   6.263  30.636  0.6446  0.0258  2.5913
   30mB      Bm 4674   2.980   6.085  30.472  0.1694 -0.2567 -0.1646
   31mA      Am 4675   3.224   5.814  30.412 -0.3102 -0.0150 -0.1053
   32mB      Bm 4676   3.254   5.468  30.294 -0.5154 -0.2938  0.0126
   33mC      Cm 4677   3.105   5.146  30.180 -0.0806  0.3240  0.7981
   34mC      Cm 4678   2.847   4.914  29.966 -0.1701 -0.6715 -0.1093
   35mR      Rm 4679   2.934   4.866  30.287 -0.8848 -1.5392  0.8701
   36mB      Bm 4680   2.560   4.866  29.731 -0.2813  0.0672  0.0487
   37mA      Am 4681   2.230   4.888  29.562 -0.1176  0.4700 -0.4378
   38mB      Bm 4682   1.887   5.033  29.594 -0.4404 -0.6005  0.3496
   39mC      Cm 4683   1.589   5.201  29.733 -0.0647  0.1052  0.8107
   40mC      Cm 4684   1.389   5.510  29.908 -0.6703 -0.1159  1.3771
   41mR      Rm 4685   1.358   5.189  29.978 -0.7655  0.3303 -0.4793
   42mB      Bm 4686   1.383   5.846  30.037  0.6165 -0.5542 -0.9980
   43mA      Am 4687   1.480   6.125  30.254  0.7698  0.5119 -0.1072
   44mB      Bm 4688   1.687   6.252  30.532 -0.9522 -0.6373 -1.1353
   45mC      Cm 4689   1.919   6.272  30.813  0.0886  0.0994  0.8203
   46mC      Cm 4690   2.290   6.193  30.987 -0.4482  0.5660 -0.2745
   47mR      Rm 4691   1.988   6.158  31.126  1.0648  0.3198  0.8485
   48mB      Bm 4692   2.629   6.043  31.010  0.9117 -0.6021 -0.7270
   49mA      Am 4693   2.888   5.786  30.982 -0.5987 -0.2434  0.2416
   50mB      Bm 4694   2.961   5.428  30.900  1.3854  0.2946 -0.2931
   51mC      Cm 4695   2.891   5.064  30.818 -0.5348  0.1039 -0.0547
   52mC      Cm 4696   2.739   4.764  30.586  0.8226  0.2027  0.5455
   53mR      Rm 4697   2.792   4.768  30.918 -0.0365 -0.2546  0.4234
   54mB      Bm 4698   2.513   4.656  30.317  0.9820  0.3979 -0.6685
   55mA      Am 4699   2.221   4.593  30.085 -1.4427  1.0857 -1.0800
   56mB      Bm 4700   1.853   4.649  30.056  0.8588 -0.3218  0.5825
   57mC      Cm 4701   1.514   4.778  30.150 -1.6331  0.2635  0.3887
   58mC      Cm 4702   1.290   5.072  30.310  0.7612 -1.1148 -0.0972
   59mR      Rm 4703   1.260   4.744  30.361  0.1834  0.8129 -0.0408
   60mB      Bm 4704   1.216   5.409  30.436  0.8941  0.5227 -1.1168
   61mA      Am 4705   1.241   5.725  30.637 -0.1506 -0.2416 -0.7553
   62mB      Bm 4706   1.417   5.882  30.915  0.6316 -0.9477 -0.4108
   63mC      Cm 4707   1.636   5.926  31.203 -1.0098  0.5899 -0.2421
   64mC      Cm 4708   2.012   5.904  31.371 -0.2523  0.1369  0.0778
   65mR      Rm 4709   1.705   5.866  31.525  0.5716 -0.7097  2.5119
   66mB      Bm 4710   2.367   5.813  31.424  0.4046  1.0737 -0.9541
   67mA      Am 4711   2.665   5.581  31.459  0.1774  0.1897 -0.4753
   68mB      Bm 4712   2.761   5.219  31.429  0.6837  0.5507  0.7854
   69mC      Cm 4713   2.747   4.856  31.369 -0.1995  2.0306  0.1900
   70mC      Cm 4714   2.663   4.498  31.178  0.7347 -0.5748 -0.6968
   71mR      Rm 4715   2.632   4.572  31.527 -0.2224  0.5669  2.1423
   72mB      Bm 4716   2.523   4.291  30.915  0.7791  0.2505 -0.1330
   73mA      Am 4717   2.261   4.132  30.697 -0.1987 -0.6585 -1.1095
   74mB      Bm 4718   1.899   4.163  30.641  0.0933 -0.4941 -0.1392
   75mC      Cm 4719   1.546   4.266  30.671  0.5568 -1.1277  0.1587
   76mC      Cm 4720   1.251   4.542  30.731 -0.3142  0.4118  0.0024
   77mR      Rm 4721   1.290   4.241  30.873 -1.0153 -1.7725 -1.9226
   78mB      Bm 4722   1.128   4.891  30.828  0.9382 -0.1891  0.9099
   79mA      Am 4723   1.103   5.222  30.990 -0.5103  0.8982  0.6870
   80mB      Bm 4724   1.242   5.439  31.246  0.5451 -0.2697 -0.3824
   81mC      Cm 4725   1.447   5.571  31.528  0.0042  0.6271  1.1225
   82mC      Cm 4726   1.795   5.576  31.749  0.5519 -1.0745 -0.8545
   83mR      Rm 4727   1.482   5.549  31.868  0.9526 -0.4751 -2.0595
   84mB      Bm 4728   2.140   5.477  31.847  0.8144  0.0184  0.2053
   85mA      Am 4729   2.421   5.244  31.927 -0.3805 -1.1534 -0.4644
   86mB      Bm 4730   2.546   4.896  31.970  0.0482 -1.1650 -0.0455
   87mC      Cm 4731   2.574   4.530  32.005 -0.2217  0.5084  0.4732
   88mC      Cm 4732   2.488   4.163  31.856  0.0075  0.2818  0.0754
   89mR      Rm 4733   2.492   4.254  32.185 -1.0146 -0.5027  1.4184
   90mB      Bm 4734   2.332   3.932  31.603 -1.1729  0.4605 -0.4387
   91mA      Am 4735   2.083   3.745  31.405 -0.6702  0.2085  0.5125
   92mB      Bm 4736   1.729   3.674  31.344  1.0296  0.2922 -0.0632
   93mC      Cm 4737   1.346   3.688  31.381 -1.1168  0.0992 -1.5467
   94mC      Cm 4738   1.005   3.914  31.401  0.7924  0.5505  0.9674
   95mR      Rm 4739   1.067   3.643  31.588  0.3089  0.1341  0.1682
   96mB      Bm 4740   0.815   4.233  31.448 -0.0367  0.7865  0.4882
   97mA      Am 4741   0.719   4.570  31.564  0.3586  0.8670  0.3240
   98mB      Bm 4742   0.803   4.842  31.803  0.0573  1.4274 -0.5362
   99mC      Cm 4743   0.975   5.022  32.064  0.5659 -0.5023  1.3006
  100mC      Cm 4744   1.314   5.136  32.269 -0.9752  0.5455  0.4205
  101mR      Rm 4745   1.009   5.048  32.404 -0.3433  0.9117 -0.6057
  102mB      Bm 4746   1.672   5.149  32.344  0.0592 -0.2519 -0.3059
  103mA      Am 4747   2.032   5.061  32.427  0.2167  0.2230 -0.4942
  104mB      Bm 4748   2.227   4.762  32.500 -0.8235  0.3664  1.2062
  105mC      Cm 4749   2.310   4.413  32.559 -0.1343 -0.5459 -0.0600
  106mC      Cm 4750   2.308   4.004  32.495 -0.5792  0.0646 -0.7937
  107mR      Rm 4751   2.297   4.162  32.790 -0.0437 -1.7023  1.2032
  108tB      Bt 4752   2.472   3.716  32.326  0.3880  0.6597 -0.6571
    1hA      Ah 4753   4.736   6.733  31.585 -0.1489  0.6949 -0.3771
    2mB      Bm 4754   5.041   6.909  31.705  0.2979 -0.9710 -0.3882
    3mC      Cm 4755   5.286   7.183  31.767  0.0655 -1.0631 -0.1232
    4mC      Cm 4756   5.432   7.534  31.920 -0.9480 -0.0939 -0.7750
    5mR      Rm 4757   5.485   7.401  31.610 -0.5123 -1.7670  0.6220
    6mB      Bm 4758   5.426   7.855  32.094  0.4229  0.4458  0.0258
    7mA      Am 4759   5.343   8.206  32.199  0.2785  0.9810 -0.2786
    8mB      Bm 4760   5.142   8.514  32.150 -1.1434 -0.3593 -0.7846
    9mC      Cm 4761   4.911   8.768  32.020  0.2349 -0.0175  0.3353
   10mC      Cm 4762   4.572   8.870  31.835  0.9970  0.0819 -0.0558
   11mR      Rm 4763   4.874   8.999  31.784  1.4233 -0.8537  0.4076
   12mB      Bm 4764   4.258   8.772  31.645 -0.3299 -0.6109 -0.4906
   13mA      Am 4765   4.023   8.627  31.409 -0.3732  0.1835  0.4839
   14mB      Bm 4766   3.981   8.403  31.113 -0.7662 -0.5614 -0.6965
   15mC      Cm 4767   4.056   8.171  30.835 -0.6517 -0.1370  0.2442
   16mC      Cm 4768   4.239   7.853  30.655  0.4610 -1.3717 -0.4927
   17mR      Rm 4769   4.171   8.149  30.516  1.2789 -0.0959 -0.4673
   18mB      Bm 4770   4.500   7.587  30.666  0.9457  0.0805 -0.2980
   19mA      Am 4771   4.826   7.426  30.712  0.3565  0.2592  0.0356
   20mB      Bm 4772   5.176   7.501  30.825  0.2064 -0.0891 -0.6738
   21mC      Cm 4773   5.480   7.680  30.939  0.8615  0.0974 -0.2204
   22mC      Cm 4774   5.672   7.951  31.164 -0.5702 -0.4614 -0.0329
   23mR      Rm 4775   5.706   7.893  30.839  0.0988  1.6399  1.5950
   24mB      Bm 4776   5.717   8.218  31.408  0.0186 -0.1546 -0.2824
   25mA      Am 4777   5.654   8.555  31.570 -0.2307 -0.8558  0.1231
   26mB      Bm 4778   5.500   8.894  31.602 -0.3945 -0.5905 -0.7175
   27mC      Cm 4779   5.280   9.179  31.511  0.7494 -0.0267  0.5912
   28mC      Cm 4780   4.922   9.324  31.389 -0.2283 -1.4260 -0.4037
   29mR      Rm 4781   5.234   9.441  31.309  0.0852  0.5315 -0.5741
   30mB      Bm 4782   4.575   9.305  31.246  0.0918  0.2136 -0.5420
   31mA      Am 4783   4.293   9.195  31.025 -0.3806 -0.2372  0.6136
   32mB      Bm 4784   4.208   9.003  30.724 -0.1515 -0.6959 -1.2073
   33mC      Cm 4785   4.249   8.778  30.432 -1.2670  0.5309  0.7250
   34mC      Cm 4786   4.401   8.454  30.236 -0.8795 -0.7319 -0.0451
   35mR      Rm 4787   4.336   8.760  30.102  0.5843  1.1279 -1.8171
   36mB      Bm 4788   4.634   8.178  30.237 -0.0350  0.7576 -0.3149
   37mA      Am 4789   4.936   7.990  30.289 -0.1770  0.0033 -0.3159
   38mB      Bm 4790   5.292   7.969  30.397  0.9296 -0.3787 -0.4442
   39mC      Cm 4791   5.627   8.083  30.504 -0.2416  0.5277 -0.5921
   40mC      Cm 4792   5.884   8.310  30.729  0.9663  0.6224 -0.6328
   41mR      Rm 4793   5.896   8.238  30.393  0.1691 -0.5466  1.7514
   42mB      Bm 4794   5.964   8.568  30.981 -0.1058  0.5826  0.3491
   43mA      Am 4795   5.924   8.883  31.167 -0.1027  0.1716 -0.0735
   44mB      Bm 4796   5.753   9.213  31.204  0.7695 -0.8693  0.3607
   45mC      Cm 4797   5.531   9.500  31.123 -0.0711  2.3399 -0.0379
   46mC      Cm 4798   5.184   9.671  31.008 -0.2488 -0.8251 -0.5160
   47mR      Rm 4799   5.500   9.783  30.947  1.1985  0.2160 -0.4931
   48mB      Bm 4800   4.844   9.647  30.853 -0.5861 -0.0751  0.1561
   49mA      Am 4801   4.578   9.544  30.632  0.0535 -0.5254  0.0011
   50mB      Bm 4802   4.487   9.354  30.332 -0.3170  0.8395  1.1322
   51mC      Cm 4803   4.503   9.138  30.034 -0.2207  0.8428  0.3058
   52mC      Cm 4804   4.623   8.805  29.823 -0.3200 -0.4788  0.0832
   53mR      Rm 4805   4.653   9.133  29.730 -0.8814 -0.7448 -0.1782
   54mB      Bm 4806   4.784   8.478  29.776  0.3912 -0.3440  0.5413
   55mA      Am 4807   5.055   8.220  29.789 -0.3970 -0.0811 -0.5960
   56mB      Bm 4808   5.413   8.175  29.856 -0.4441  0.0838  0.3638
   57mC      Cm 4809   5.757   8.270  29.945 -0.1730 -0.0252 -0.7956
   58mC      Cm 4810   6.038   8.484  30.148  0.7574  0.4880  0.1418
   59mR      Rm 4811   6.015   8.440  29.820  2.1698  0.7081  0.3217
   60mB      Bm 4812   6.169   8.700  30.422  0.0373 -0.0948 -0.2210
   61mA      Am 4813   6.210   9.003  30.628 -0.0203  0.4433 -0.6621
   62mB      Bm 4814   6.129   9.345  30.725 -0.4692 -0.2031 -0.6162
   63mC      Cm 4815   5.989   9.689  30.708 -0.1573  0.3725  0.6124
   64mC      Cm 4816   5.712   9.984  30.665  0.3871  0.2213 -0.6749
   65mR      Rm 4817   6.043  10.003  30.588  0.5930 -0.7994  0.3437
   66mB      Bm 4818   5.377  10.110  30.593 -0.0541  0.7461 -0.0481
   67mA      Am 4819   5.057  10.176  30.416 -0.9153  0.7297  0.1098
   68mB      Bm 4820   4.880  10.108  30.096  0.5547 -0.0609  0.2679
   69mC      Cm 4821   4.805  10.003  29.747  0.0046 -0.9019 -1.5854
   70mC      Cm 4822   4.745   9.732  29.451  0.0088  0.9839  0.1598
   71mR      Rm 4823   4.869  10.041  29.426 -1.6301  0.9713 -0.8000
   72mB      Bm 4824   4.769   9.390  29.296 -0.4268 -0.5384 -0.3084
   73mA      Am 4825   4.905   9.087  29.174 -0.6781 -0.1185  0.7273
   74mB      Bm 4826   5.225   8.888  29.169 -0.4285  0.3665  1.5443
   75mC      Cm 4827   5.585   8.797  29.205  0.7323  0.7997 -1.8301
   76mC      Cm 4828   5.939   8.777  29.411 -0.3828 -0.4987  0.3240
   77mR      Rm 4829   5.893   8.869  29.087 -0.4317  0.6864 -0.6252
   78mB      Bm 4830   6.157   8.864  29.700  0.7514  0.4241  0.3778
   79mA      Am 4831   6.326   9.067  29.966 -0.5971  0.4292 -0.7125
   80mB      Bm 4832   6.368   9.404  30.098  0.2038 -0.3342  0.7085
   81mC      Cm 4833   6.314   9.772  30.126 -0.2926  0.2451 -1.5334
   82mC      Cm 4834   6.087  10.110  30.155  0.2049 -1.1510  0.8546
   83mR      Rm 4835   6.383  10.076  29.994 -0.3365  0.3937 -0.2422
   84mB      Bm 4836   5.774  10.313  30.137  0.3800  1.0199 -0.2800
   85mA      Am 4837   5.455  10.435  30.004  0.4310 -0.1604 -0.5004
   86mB      Bm 4838   5.218  10.437  29.715  0.2637 -1.1861 -0.3598
   87mC      Cm 4839   5.090  10.362  29.382 -0.5492 -0.1766  1.0139
   88mC      Cm 4840   4.993  10.119  29.068  0.4581  0.2070 -0.2852
   89mR      Rm 4841   5.138  10.419  29.062  0.8811  0.4161  0.3499
   90mB      Bm 4842   4.921   9.801  28.894  0.3908 -0.0044  1.0487
   91mA      Am 4843   4.979   9.477  28.725  0.2973 -0.6581 -0.6044
   92mB      Bm 4844   5.221   9.230  28.610 -0.1809  0.7048 -1.2374
   93mC      Cm 4845   5.534   9.053  28.513 -0.9928  0.1028 -0.3904
   94mC      Cm 4846   5.937   8.957  28.552  0.6597 -0.0914 -0.2914
   95mR      Rm 4847   5.778   9.084  28.274 -0.4934 -1.1183  0.2307
   96mB      Bm 4848   6.261   8.946  28.733 -0.7820  0.3307 -0.2448
   97mA      Am 4849   6.569   9.047  28.910  1.0202 -0.7184 -0.3108
   98mB      Bm 4850   6.759   9.345  29.028 -0.2296  0.6738  0.8278
   99mC      Cm 4851   6.851   9.705  29.070 -0.0781 -0.0656 -0.6277
  100mC      Cm 4852   6.766  10.103  29.130 -0.6442  0.9605 -0.2438
  101mR      Rm 4853   6.983   9.966  28.902  1.5627  0.5608 -1.3331
  102mB      Bm 4854   6.533  10.391  29.192  0.4960  1.2987 -0.1207
  103mA      Am 4855   6.240  10.615  29.125 -0.6446 -0.2447 -0.0642
  104mB      Bm 4856   5.948  10.689  28.926  0.7034 -0.1112  0.1278
  105mC      Cm 4857   5.686  10.656  28.667  0.6619 -0.0055 -0.8798
  106mC      Cm 4858   5.432  10.449  28.431  0.9672  0.0957  0.9708
  107mR      Rm 4859   5.658  10.679  28.337 -0.4615  0.5008  0.6088
  108tB      Bt 4860   5.092  10.307  28.366  0.3430  0.7398 -0.1764
    1hA      Ah 4861   8.772   9.186  30.490 -1.1316  1.0254  0.0434
    2mB      Bm 4862   8.674   8.828  30.524  0.6319 -0.7959 -0.1797
    3mC      Cm 4863   8.482   8.514  30.540 -0.3370 -0.4435 -0.3109
    4mC      Cm 4864   8.203   8.241  30.416  1.3974  0.1384  0.5045
    5mR      Rm 4865   8.283   8.326  30.736 -0.3243  0.3812  0.3096
    6mB      Bm 4866   7.911   8.155  30.201 -0.3868  0.3205  0.6605
    7mA      Am 4867   7.584   8.181  30.021 -0.3184 -0.0955  0.5199
    8mB      Bm 4868   7.319   8.405  29.931  0.1530 -0.5718  0.3129
    9mC      Cm 4869   7.110   8.703  29.903 -0.1396 -0.1527 -0.3263
   10mC      Cm 4870   7.009   9.095  29.864 -1.0820 -1.0450 -0.4299
   11mR      Rm 4871   6.858   8.871  30.068 -1.0641 -1.5987  1.5627
   12mB      Bm 4872   7.080   9.462  29.810  0.7322  2.0125 -0.4874
   13mA      Am 4873   7.213   9.795  29.899 -0.7442 -1.1851 -0.1752
   14mB      Bm 4874   7.409  10.006  30.135 -0.1405  0.1178 -0.0618
   15mC      Cm 4875   7.611  10.093  30.436  0.7345  0.4423  0.6053
   16mC      Cm 4876   7.931  10.057  30.688  1.6455  0.7293  0.5901
   17mR      Rm 4877   7.611  10.146  30.767 -1.2821  0.0543  0.8930
   18mB      Bm 4878   8.245   9.894  30.828 -1.1017  0.1780 -0.3536
   19mA      Am 4879   8.463   9.645  30.974  0.2293  0.5594  0.1931
   20mB      Bm 4880   8.507   9.301  31.124  0.1915 -0.4621 -0.6441
   21mC      Cm 4881   8.425   8.975  31.268  0.8468  0.8499 -0.4413
   22mC      Cm 4882   8.241   8.611  31.279  0.2727 -0.8562  0.8425
   23mR      Rm 4883   8.262   8.845  31.534 -0.1053  0.0257  0.0334
   24mB      Bm 4884   8.081   8.305  31.160  1.4196  0.8678 -0.3664
   25mA      Am 4885   7.829   8.094  30.999 -0.0954  0.1159 -0.5145
   26mB      Bm 4886   7.486   8.067  30.864 -0.1128  0.2869  0.1653
   27mC      Cm 4887   7.149   8.178  30.774  0.4823 -1.0794  0.6616
   28mC      Cm 4888   6.900   8.478  30.666 -0.3912  0.2834 -0.8543
   29mR      Rm 4889   6.850   8.258  30.904  0.6018  0.8216 -0.4617
   30mB      Bm 4890   6.835   8.835  30.577 -0.2459 -0.2402 -0.4320
   31mA      Am 4891   6.852   9.200  30.583  0.4547  0.3079  0.0355
   32mB      Bm 4892   6.953   9.518  30.743  1.1158  0.1228 -0.4971
   33mC      Cm 4893   7.080   9.748  31.004 -0.1242 -0.5871  1.6394
   34mC      Cm 4894   7.360   9.868  31.283 -0.0285  0.4896 -0.0824
   35mR      Rm 4895   7.035   9.866  31.317  0.1548 -0.6174 -1.0189
   36mB      Bm 4896   7.685   9.829  31.450  0.9026  0.0359  0.8008
   37mA      Am 4897   7.984   9.711  31.638 -0.4529  0.3127 -0.1167
   38mB      Bm 4898   8.095   9.427  31.846 -0.5420  0.1729 -0.6202
   39mC      Cm 4899   8.096   9.107  32.010  0.3252 -0.7367 -0.5730
   40mC      Cm 4900   8.013   8.713  32.009  0.1090  1.0895 -0.9878
   41mR      Rm 4901   7.985   8.921  32.273 -1.0022 -1.9375 -0.2054
   42mB      Bm 4902   7.892   8.394  31.872 -0.2540  0.6991 -0.1541
   43mA      Am 4903   7.670   8.167  31.694  0.2247  0.0714  0.4959
   44mB      Bm 4904   7.340   8.110  31.535  0.0307 -1.4635 -0.7033
   45mC      Cm 4905   6.987   8.184  31.418 -0.7050 -0.3883 -0.4102
   46mC      Cm 4906   6.682   8.410  31.255 -1.0336  0.3195 -0.4141
   47mR      Rm 4907   6.673   8.197  31.515 -0.7735 -1.4734  0.2697
   48mB      Bm 4908   6.549   8.728  31.114 -0.8222  0.4514  0.2206
   49mA      Am 4909   6.467   9.088  31.059 -0.2573 -0.9462  0.5386
   50mB      Bm 4910   6.513   9.423  31.206 -0.0487  0.8176 -1.0779
   51mC      Cm 4911   6.633   9.681  31.443  0.0257 -0.0080  0.2601
   52mC      Cm 4912   6.909   9.826  31.712 -0.5282 -0.5772 -0.5762
   53mR      Rm 4913   6.567   9.801  31.757  0.9991  1.0415  0.8951
   54mB      Bm 4914   7.232   9.834  31.895  0.2227 -0.5634 -0.3843
   55mA      Am 4915   7.530   9.736  32.103 -0.1703  0.4393  0.2648
   56mB      Bm 4916   7.686   9.466  32.291  0.5605 -0.3336 -0.2889
   57mC      Cm 4917   7.740   9.132  32.447 -0.5224 -0.6753 -0.5348
   58mC      Cm 4918   7.696   8.726  32.455 -0.4225  1.1216 -0.4544
   59mR      Rm 4919   7.604   8.945  32.694 -0.4617  0.2510  0.0806
   60mB      Bm 4920   7.616   8.390  32.323 -0.5147  0.3032 -0.0854
   61mA      Am 4921   7.423   8.109  32.166  0.3480  0.8102  0.1803
   62mB      Bm 4922   7.100   8.013  32.017 -0.6320  0.2972  0.9747
   63mC      Cm 4923   6.744   8.053  31.911  1.0197  0.2659  0.9061
   64mC      Cm 4924   6.414   8.236  31.768  0.7494 -0.7785 -0.3655
   65mR      Rm 4925   6.442   8.038  32.034  0.8903 -0.3355 -0.2962
   66mB      Bm 4926   6.202   8.520  31.624  0.1084 -1.1856  0.1009
   67mA      Am 4927   6.073   8.866  31.564  0.0095 -0.2308 -0.6283
   68mB      Bm 4928   6.096   9.208  31.676 -0.0061  0.2315 -0.1072
   69mC      Cm 4929   6.195   9.504  31.882  0.6231 -0.7536  1.5089
   70mC      Cm 4930   6.452   9.722  32.116 -0.6489 -0.6053  0.1732
   71mR      Rm 4931   6.136   9.634  32.185 -0.8050  1.0340 -0.0088
   72mB      Bm 4932   6.787   9.781  32.281  0.6707  0.4441 -0.0818
   73mA      Am 4933   7.107   9.719  32.478  0.5555 -0.4689  0.0856
   74mB      Bm 4934   7.289   9.480  32.696 -0.7071 -0.2644  0.6590
   75mC      Cm 4935   7.363   9.173  32.899 -0.6137 -0.7536 -0.7343
   76mC      Cm 4936   7.386   8.775  32.960 -0.2432  0.6530 -0.4251
   77mR      Rm 4937   7.290   9.018  33.179  0.3985  1.8843  0.0674
   78mB      Bm 4938   7.352   8.420  32.876  0.1344 -0.8730  0.8242
   79mA      Am 4939   7.184   8.093  32.781 -0.4355  0.1353 -1.0150
   80mB      Bm 4940   6.855   7.954  32.695 -0.7410 -0.0182 -0.9083
   81mC      Cm 4941   6.490   7.974  32.612  0.3627 -0.5865 -0.3401
   82mC      Cm 4942   6.148   8.112  32.421 -0.5485 -1.1452  0.6680
   83mR      Rm 4943   6.188   8.021  32.748  1.4437  1.9055  0.3880
   84mB      Bm 4944   5.965   8.340  32.209 -0.3941 -0.6325 -0.1268
   85mA      Am 4945   5.814   8.643  32.081 -0.1906 -0.8036  0.1299
   86mB      Bm 4946   5.771   9.007  32.168  0.3948 -0.3423 -0.5465
   87mC      Cm 4947   5.803   9.332  32.344  0.5875 -0.3771  0.7406
   88mC      Cm 4948   6.009   9.627  32.545 -1.0904  0.1785  0.5844
   89mR      Rm 4949   5.722   9.471  32.646 -0.0838  1.1168 -0.9648
   90mB      Bm 4950   6.306   9.799  32.659  0.8482  0.2992 -0.1526
   91mA      Am 4951   6.617   9.843  32.861  0.7815 -0.0210 -0.0595
   92mB      Bm 4952   6.824   9.698  33.116  0.3663  0.1672 -0.0577
   93mC      Cm 4953   6.947   9.447  33.349 -0.6907  0.8129 -0.3832
   94mC      Cm 4954   6.987   9.054  33.467  0.7452  0.2583  0.6097
   95mR      Rm 4955   6.887   9.313  33.660 -0.0078 -2.5774  0.5815
   96mB      Bm 4956   6.924   8.688  33.440  0.6747 -0.5788 -0.4850
   97mA      Am 4957   6.755   8.366  33.355  0.6451  0.7619 -0.4019
   98mB      Bm 4958   6.458   8.199  33.217 -0.5658  0.2985 -0.0693
   99mC      Cm 4959   6.124   8.108  33.084 -0.7265 -0.0632 -0.9398
  100mC      Cm 4960   5.797   8.199  32.848  0.6435 -0.0579 -0.0018
  101mR      Rm 4961   5.794   8.072  33.158  0.7198 -0.0538  0.3121
  102mB      Bm 4962   5.607   8.433  32.618  0.0588 -0.3675 -0.4445
  103mA      Am 4963   5.448   8.738  32.487 -0.2145  0.4480  0.6054
  104mB      Bm 4964   5.360   9.089  32.558  0.0353  0.0892 -0.0143
  105mC      Cm 4965   5.331   9.415  32.723 -1.3722  1.8602 -0.2758
  106mC      Cm 4966   5.503   9.727  32.925  0.8627  0.0439  0.0521
  107mR      Rm 4967   5.194   9.586  32.999  1.1449 -0.0183 -0.6880
  108tB      Bt 4968   5.783   9.908  33.102 -0.4751  0.4287  0.4954
    1hA      Ah 4969   9.673   2.547  31.978 -0.7279 -0.5238  0.7971
    2mB      Bm 4970   9.732   2.838  32.208  0.6545 -0.8712 -0.4881
    3mC      Cm 4971   9.888   3.104  32.411  0.2801  0.9560  0.8381
    4mC      Cm 4972  10.121   3.420  32.507 -0.9992 -1.6932 -0.7925
    5mR      Rm 4973  10.104   3.131  32.674  0.3735  0.0668  0.4238
    6mB      Bm 4974  10.343   3.708  32.418 -0.8807 -0.4917  0.6643
    7mA      Am 4975  10.606   3.914  32.268  0.1973  0.4741  0.1849
    8mB      Bm 4976  10.905   3.970  32.052 -0.1340  0.6789  0.4158
    9mC      Cm 4977  11.202   3.903  31.831  1.1355  0.2040 -1.2901
   10mC      Cm 4978  11.407   3.782  31.502  0.4080 -1.2080  0.3673
   11mR      Rm 4979  11.515   3.772  31.824  0.4662 -0.0407 -1.0897
   12mB      Bm 4980  11.429   3.617  31.165  0.3609  0.2359  0.3046
   13mA      Am 4981  11.408   3.356  30.915 -0.0311  0.3182  1.3311
   14mB      Bm 4982  11.316   3.000  30.838  0.1341 -0.3013  0.9298
   15mC      Cm 4983  11.206   2.643  30.859  0.1534 -0.3997 -0.4074
   16mC      Cm 4984  10.997   2.337  31.020 -0.0880  0.8793 -0.6918
   17mR      Rm 4985  11.331   2.358  30.955 -0.1854  1.9569 -1.3440
   18mB      Bm 4986  10.740   2.187  31.243 -0.0742  0.0185  0.3276
   19mA      Am 4987  10.556   2.125  31.564  0.2228 -0.7224 -0.8510
   20mB      Bm 4988  10.558   2.200  31.925  0.2363 -0.0599  0.3751
   21mC      Cm 4989  10.672   2.310  32.267 -1.1272 -0.7110 -1.1640
   22mC      Cm 4990  10.880   2.564  32.519  0.6845 -0.0551  0.5074
   23mR      Rm 4991  10.886   2.236  32.518  0.7536 -0.4381  1.0272
   24mB      Bm 4992  11.064   2.865  32.622 -0.5335 -0.8395 -0.0919
   25mA      Am 4993  11.307   3.150  32.628  0.3451  0.4041 -0.8710
   26mB      Bm 4994  11.574   3.321  32.427  0.2904 -0.1843  0.4931
   27mC      Cm 4995  11.839   3.381  32.158 -0.1672 -0.6969 -0.8909
   28mC      Cm 4996  12.002   3.345  31.788  0.1419 -0.9823  1.0306
   29mR      Rm 4997  12.160   3.296  32.076 -1.2199  0.0854 -0.1580
   30mB      Bm 4998  11.974   3.243  31.421  0.8305  0.7922  0.5880
   31mA      Am 4999  11.912   3.038  31.123  0.0606  0.2780  1.2207
   32mB      Bm 5000  11.797   2.716  30.998  0.2464  0.0044 -0.2661
   33mC      Cm 5001  11.686   2.357  31.002  1.2060 -0.4130 -1.2028
   34mC      Cm 5002  11.478   2.039  31.134 -0.0741 -0.8275  0.6456
   35mR      Rm 5003  11.803   2.054  31.027 -0.9953  0.2771  0.2340
   36mB      Bm 5004  11.231   1.835  31.326 -0.0863  0.0823 -0.0393
   37mA      Am 5005  11.033   1.652  31.590 -0.4206 -0.7156  0.7404
   38mB      Bm 5006  11.023   1.553  31.945 -0.3416  0.1284  0.7056
   39mC      Cm 5007  11.148   1.529  32.297 -0.6098 -0.1133  0.0184
   40mC      Cm 5008  11.277   1.652  32.667 -0.1060  1.0347  0.1611
   41mR      Rm 5009  11.335   1.355  32.510 -0.3469 -0.0948 -0.2403
   42mB      Bm 5010  11.409   1.892  32.921  0.2463 -0.7102  0.0839
   43mA      Am 5011  11.628   2.155  33.076 -0.5280 -0.1528  0.3431
   44mB      Bm 5012  11.936   2.352  33.068 -0.3296  0.2719 -0.4178
   45mC      Cm 5013  12.266   2.497  32.954  0.1972 -0.5895 -1.1038
   46mC      Cm 5014  12.524   2.688  32.704  0.8231  0.1042 -0.0900
   47mR      Rm 5015  12.588   2.437  32.912 -0.0669  0.2876  0.9840
   48mB      Bm 5016  12.634   2.840  32.383 -0.5822  0.4789  0.1631
   49mA      Am 5017  12.690   2.876  32.024 -0.0724 -0.0626 -0.1395
   50mB      Bm 5018  12.690   2.703  31.694 -0.1694  0.5079  0.1988
   51mC      Cm 5019  12.674   2.448  31.421 -0.5806  0.5169 -1.0773
   52mC      Cm 5020  12.517   2.109  31.252  0.2136 -0.0611  0.2651
   53mR      Rm 5021  12.841   2.175  31.306  0.1232 -1.5993 -0.8060
   54mB      Bm 5022  12.267   1.819  31.219 -0.7324  0.3251  0.2138
   55mA      Am 5023  12.071   1.522  31.297  0.0084  0.3147  0.5207
   56mB      Bm 5024  11.957   1.242  31.517  0.4383 -0.1925 -0.6984
   57mC      Cm 5025  11.910   1.012  31.803  0.3455  0.4748 -0.6672
   58mC      Cm 5026  11.854   0.946  32.206  0.1964 -0.9072 -0.6730
   59mR      Rm 5027  12.052   0.767  31.999 -1.7145 -1.1564  0.4134
   60mB      Bm 5028  11.818   1.030  32.560  0.7895  0.6585 -0.2259
   61mA      Am 5029  11.888   1.186  32.895  0.3191  1.5057 -0.0535
   62mB      Bm 5030  12.132   1.394  33.085  0.1525  0.1276  0.6691
   63mC      Cm 5031  12.436   1.581  33.178 -1.0902 -0.1527 -0.2764
   64mC      Cm 5032  12.749   1.835  33.125 -0.6737 -0.6827  0.6679
   65mR      Rm 5033  12.754   1.530  33.238 -0.1757 -0.1835  1.7643
   66mB      Bm 5034  12.985   2.085  32.980 -0.5736 -0.3679 -0.5557
   67mA      Am 5035  13.234   2.253  32.752  0.5765  0.2750  0.6907
   68mB      Bm 5036  13.423   2.237  32.432 -0.3614 -0.2053 -0.0681
   69mC      Cm 5037  13.540   2.104  32.116 -0.0417 -0.0622 -0.9035
   70mC      Cm 5038  13.543   1.960  31.732  0.3442 -0.5802 -0.0444
   71mR      Rm 5039  13.762   1.889  31.985  0.2321 -0.8398  1.3247
   72mB      Bm 5040  13.378   1.812  31.431  0.2477  0.4186  0.2285
   73mA      Am 5041  13.166   1.594  31.214  0.5165 -0.2889  0.0281
   74mB      Bm 5042  12.994   1.274  31.188 -0.2135  0.7857  0.3369
   75mC      Cm 5043  12.853   0.931  31.246  0.2825  0.6482  0.5640
   76mC      Cm 5044  12.637   0.642  31.446  0.6385  0.8069 -0.6758
   77mR      Rm 5045  12.918   0.599  31.269  1.1149 -0.4953 -0.6530
   78mB      Bm 5046  12.431   0.512  31.726 -0.0693 -0.0401  0.8027
   79mA      Am 5047  12.305   0.425  32.060  0.2019  0.3606  0.2058
   80mB      Bm 5048  12.339   0.428  32.420 -0.3602  0.3293  0.9716
   81mC      Cm 5049  12.479   0.461  32.762 -0.8053 -0.1711 -0.7570
   82mC      Cm 5050  12.693   0.662  33.050 -0.4476  1.1569 -0.0265
   83mR      Rm 5051  12.705   0.323  32.985  0.6626 -0.2508 -1.1893
   84mB      Bm 5052  12.891   0.938  33.180  0.6642 -0.3015  0.1653
   85mA      Am 5053  13.154   1.194  33.218 -0.1637 -0.7057 -0.2641
   86mB      Bm 5054  13.462   1.328  33.077 -0.1540  0.0230  0.0162
   87mC      Cm 5055  13.764   1.379  32.854  0.5930  0.3977  0.0584
   88mC      Cm 5056  13.936   1.395  32.484 -0.7958 -1.2529  0.2167
   89mR      Rm 5057  14.073   1.272  32.767  0.9136 -1.0262  0.1584
   90mB      Bm 5058  13.940   1.340  32.120  0.0231  0.1259  0.1902
   91mA      Am 5059  13.925   1.165  31.794 -0.2362 -0.3500 -1.0551
   92mB      Bm 5060  13.846   0.841  31.624 -0.3943 -0.7839 -0.5586
   93mC      Cm 5061  13.739   0.486  31.606  0.8647  0.8613  0.0817
   94mC      Cm 5062  13.475   0.180  31.662 -0.2617  0.2592 -0.5296
   95mR      Rm 5063  13.807   0.167  31.675  0.1177  0.2205  0.0605
   96mB      Bm 5064  13.178   0.006  31.803 -0.6468 -1.6820 -0.6097
   97mA      Am 5065  12.930  -0.098  32.050 -0.7003  0.1873  0.6456
   98mB      Bm 5066  12.848  -0.105  32.399  0.6827  0.0227  0.2647
   99mC      Cm 5067  12.887  -0.089  32.761 -0.1051 -0.3015 -0.2504
  100mC      Cm 5068  12.959   0.096  33.115  0.1849 -0.9291  0.0412
  101mR      Rm 5069  13.066  -0.220  33.025 -0.7210 -0.9003  0.8015
  102mB      Bm 5070  13.058   0.361  33.345 -1.1846  0.0208  0.0141
  103mA      Am 5071  13.247   0.638  33.507  0.9128  0.6624  0.7543
  104mB      Bm 5072  13.516   0.884  33.527 -1.2110 -0.2255 -0.3648
  105mC      Cm 5073  13.827   1.070  33.434 -0.5917  0.1842  0.0967
  106mC      Cm 5074  14.073   1.298  33.196  0.7082 -0.1231  0.1689
  107mR      Rm 5075  14.151   1.031  33.384 -0.7693  0.1086 -0.0858
  108tB      Bt 5076  14.236   1.617  33.092 -0.1109 -0.1598 -0.7319
    1hA      Ah 5077   3.267  11.397  18.566  0.4278  0.4996  0.1067
    2mB      Bm 5078   3.559  11.472  18.779 -0.2900 -0.0577  0.4775
    3mC      Cm 5079   3.847  11.661  18.923  0.2230  0.2233  0.1423
    4mC      Cm 5080   4.017  12.017  19.033  0.0678  0.4123  0.6156
    5mR      Rm 5081   4.156  11.764  18.860 -0.1896  2.1329 -0.0069
    6mB      Bm 5082   4.049  12.383  19.095  0.0767  0.6613 -0.6417
    7mA      Am 5083   4.043  12.750  19.046 -0.6392 -0.8530  0.5854
    8mB      Bm 5084   3.934  13.018  18.811 -0.1965  0.4028 -0.3391
    9mC      Cm 5085   3.811  13.220  18.522 -0.3839 -0.5034  0.1959
   10mC      Cm 5086   3.557  13.325  18.218 -0.1108 -0.1514 -1.2735
   11mR      Rm 5087   3.894  13.351  18.220  1.5191  1.1096 -0.8249
   12mB      Bm 5088   3.256  13.280  18.007  1.1249 -0.7658  0.2690
   13mA      Am 5089   3.010  13.098  17.799 -0.0641 -0.5101 -0.0773
   14mB      Bm 5090   2.888  12.782  17.655 -0.0163 -0.6808 -0.4116
   15mC      Cm 5091   2.877  12.426  17.556  0.2596  0.7952  0.1975
   16mC      Cm 5092   2.961  12.032  17.626  0.9636 -0.4444  1.5340
   17mR      Rm 5093   3.015  12.200  17.339 -0.4788  1.1559 -0.0293
   18mB      Bm 5094   3.076  11.740  17.815  0.1822 -0.3118 -0.6251
   19mA      Am 5095   3.283  11.514  18.019 -0.0162 -0.1033 -0.5268
   20mB      Bm 5096   3.610  11.510  18.188  1.0164  0.4204  0.5733
   21mC      Cm 5097   3.950  11.616  18.299 -1.0051  0.0028  0.2018
   22mC      Cm 5098   4.222  11.874  18.448  0.4295 -0.8165  0.7453
   23mR      Rm 5099   4.262  11.646  18.194 -0.6733 -1.1440  0.7709
   24mB      Bm 5100   4.335  12.210  18.571 -0.8045  1.3171 -0.0290
   25mA      Am 5101   4.392  12.565  18.570  0.0724 -0.3067  0.7026
   26mB      Bm 5102   4.350  12.893  18.391 -1.0203  0.0520 -0.0558
   27mC      Cm 5103   4.258  13.127  18.130  1.3347  0.2562  0.4877
   28mC      Cm 5104   4.010  13.271  17.834 -0.5517  0.2802 -0.7008
   29mR      Rm 5105   4.347  13.236  17.821  0.7749 -1.5005 -0.7017
   30mB      Bm 5106   3.700  13.290  17.616 -0.2787  0.4126 -0.0157
   31mA      Am 5107   3.437  13.186  17.391  0.5893 -1.0565  0.2341
   32mB      Bm 5108   3.291  12.899  17.205 -0.5985  0.4547 -0.0805
   33mC      Cm 5109   3.252  12.555  17.066  0.0239  0.0322 -0.1224
   34mC      Cm 5110   3.292  12.146  17.109 -0.2518  0.1558  0.1372
   35mR      Rm 5111   3.377  12.337  16.843  0.4775  0.3718  0.5185
   36mB      Bm 5112   3.365  11.825  17.283 -0.4142 -0.4324 -0.5561
   37mA      Am 5113   3.572  11.579  17.484 -0.0136  0.4859  0.6333
   38mB      Bm 5114   3.878  11.501  17.664  0.6743 -0.5458 -0.1720
   39mC      Cm 5115   4.226  11.533  17.790 -1.4802  0.4203  0.2786
   40mC      Cm 5116   4.537  11.734  17.955  0.2137 -0.7544  0.8994
   41mR      Rm 5117   4.540  11.503  17.702  0.0922  0.0966 -0.1607
   42mB      Bm 5118   4.696  12.048  18.090 -0.0964 -0.6699 -0.8116
   43mA      Am 5119   4.805  12.406  18.117  0.2201  1.2058  0.3414
   44mB      Bm 5120   4.789  12.748  17.957 -0.6881  0.7592 -0.3530
   45mC      Cm 5121   4.700  12.979  17.690 -0.3263  0.0547  0.3316
   46mC      Cm 5122   4.458  13.156  17.411 -0.2368 -0.0797 -0.6129
   47mR      Rm 5123   4.787  13.105  17.381 -1.0794  0.6021  0.9671
   48mB      Bm 5124   4.139  13.204  17.222  1.2641 -0.2480 -0.4658
   49mA      Am 5125   3.860  13.124  17.004  0.6006 -0.3890  0.6142
   50mB      Bm 5126   3.693  12.875  16.799 -0.5685  0.4191 -0.1478
   51mC      Cm 5127   3.627  12.559  16.614 -0.1042 -0.1633 -0.4251
   52mC      Cm 5128   3.623  12.152  16.594 -0.3021  1.0610 -0.0024
   53mR      Rm 5129   3.719  12.364  16.351 -0.2382  0.7827  0.2116
   54mB      Bm 5130   3.679  11.815  16.739  0.2372  0.1013  0.0440
   55mA      Am 5131   3.858  11.549  16.905  0.7335 -0.4171  0.1234
   56mB      Bm 5132   4.159  11.449  17.077  0.1986 -0.4293  0.2144
   57mC      Cm 5133   4.500  11.442  17.229 -0.2828 -0.0001 -0.3371
   58mC      Cm 5134   4.791  11.652  17.417  0.4014 -0.0809  0.5122
   59mR      Rm 5135   4.834  11.450  17.151 -0.1558 -0.0338 -0.8923
   60mB      Bm 5136   4.939  11.963  17.566 -0.4681  0.7308 -0.5044
   61mA      Am 5137   5.045  12.320  17.597  0.4150 -0.0567  0.6519
   62mB      Bm 5138   5.073  12.660  17.436  0.0969 -0.5962 -0.4422
   63mC      Cm 5139   5.041  12.914  17.178  0.6339 -0.3281  1.3682
   64mC      Cm 5140   4.843  13.141  16.894 -1.2212  0.7926 -0.3302
   65mR      Rm 5141   5.170  13.028  16.884 -1.0150  1.3715 -1.0391
   66mB      Bm 5142   4.557  13.234  16.692  0.2539 -0.0797 -0.3259
   67mA      Am 5143   4.264  13.231  16.460  0.0616 -0.3378 -0.0146
   68mB      Bm 5144   4.096  12.985  16.246 -0.6895  0.7862  0.1643
   69mC      Cm 5145   3.997  12.671  16.066  0.0508 -0.4706 -0.4713
   70mC      Cm 5146   3.941  12.269  16.058 -0.0864 -0.0844 -0.4837
   71mR      Rm 5147   4.076  12.466  15.812 -1.0600  0.7155  0.3469
   72mB      Bm 5148   3.977  11.933  16.199 -0.0864 -0.0153  0.3225
   73mA      Am 5149   4.112  11.632  16.366  0.1647  0.3962  0.3588
   74mB      Bm 5150   4.403  11.493  16.535  0.2345 -0.2295 -1.0421
   75mC      Cm 5151   4.738  11.441  16.693  0.0292  0.1000 -0.2169
   76mC      Cm 5152   5.056  11.605  16.883  0.2867 -0.3398  0.2077
   77mR      Rm 5153   5.065  11.388  16.617 -0.6678 -0.6639 -0.3699
   78mB      Bm 5154   5.261  11.860  17.066 -0.8817  0.7701 -0.0351
   79mA      Am 5155   5.420  12.189  17.134  0.1708  0.2548 -0.0988
   80mB      Bm 5156   5.477  12.524  17.007 -0.0995 -0.1514  0.2387
   81mC      Cm 5157   5.469  12.827  16.800  0.5226 -0.3134 -0.2598
   82mC      Cm 5158   5.283  13.089  16.546  0.4231 -0.0382 -0.0404
   83mR      Rm 5159   5.588  12.949  16.516 -1.0579  0.1889 -0.2984
   84mB      Bm 5160   5.001  13.207  16.346 -0.0010 -0.3652  0.2747
   85mA      Am 5161   4.729  13.217  16.100  0.0432  0.0402  0.6143
   86mB      Bm 5162   4.539  13.024  15.839  0.2681 -0.0660  0.5292
   87mC      Cm 5163   4.430  12.761  15.612 -0.1866  0.5914 -0.4635
   88mC      Cm 5164   4.307  12.381  15.508 -0.4530  0.2711 -0.0702
   89mR      Rm 5165   4.527  12.580  15.343  0.3683  0.5314  1.2346
   90mB      Bm 5166   4.269  12.015  15.579 -0.4012 -0.8608  0.4449
   91mA      Am 5167   4.350  11.677  15.715  0.5813  0.2532 -0.0667
   92mB      Bm 5168   4.614  11.483  15.893 -0.7795 -0.3822  0.5601
   93mC      Cm 5169   4.931  11.390  16.050 -0.4461  0.9136 -0.3080
   94mC      Cm 5170   5.266  11.490  16.269  0.2614  0.0494  0.5915
   95mR      Rm 5171   5.255  11.312  15.978  0.2454  0.0317 -0.2160
   96mB      Bm 5172   5.475  11.714  16.479 -0.1362 -0.6760 -0.3418
   97mA      Am 5173   5.650  12.010  16.605  0.3255  0.8487 -0.1815
   98mB      Bm 5174   5.744  12.353  16.536  0.0471 -0.2579 -0.0779
   99mC      Cm 5175   5.773  12.676  16.342 -0.7311  0.6481 -0.0795
  100mC      Cm 5176   5.649  12.992  16.127 -0.0717 -0.3058  0.1357
  101mR      Rm 5177   5.935  12.824  16.081 -0.1170 -0.3115 -1.0909
  102mB      Bm 5178   5.395  13.164  15.919  0.5924  0.0753 -0.0417
  103mA      Am 5179   5.134  13.212  15.656  0.2488 -0.2974  0.2730
  104mB      Bm 5180   4.952  13.060  15.377 -1.2007 -0.0502 -0.5607
  105mC      Cm 5181   4.834  12.788  15.141 -0.1766  0.0605  0.4945
  106mC      Cm 5182   4.675  12.425  15.041  0.7181 -0.1386  0.0450
  107mR      Rm 5183   4.921  12.593  14.889 -0.0096  0.6927  0.6572
  108tB      Bt 5184   4.572  12.076  15.107  0.0359 -0.0444  0.1961
    1hA      Ah 5185   7.416   8.566  33.398  0.5011  0.5770 -0.8460
    2mB      Bm 5186   7.566   8.357  33.662  0.4685 -0.2244 -0.1548
    3mC      Cm 5187   7.831   8.230  33.891  0.9898 -0.5772  0.9309
    4mC      Cm 5188   8.120   8.233  34.168 -0.5278  0.7508 -1.5382
    5mR      Rm 5189   8.126   8.074  33.879  0.3713  0.8688 -0.5470
    6mB      Bm 5190   8.328   8.395  34.429  0.6619 -1.0660 -0.3813
    7mA      Am 5191   8.550   8.633  34.597 -0.2894 -0.3921 -0.1243
    8mB      Bm 5192   8.766   8.940  34.597  0.1936  0.2227  0.5910
    9mC      Cm 5193   8.932   9.244  34.468  0.9285  0.0153  0.6570
   10mC      Cm 5194   8.953   9.626  34.305  0.1704  0.5169 -0.3323
   11mR      Rm 5195   9.159   9.353  34.249 -0.2965  0.7917  1.6728
   12mB      Bm 5196   8.777   9.901  34.130  0.4720 -0.4161  0.1198
   13mA      Am 5197   8.538  10.070  33.898  0.6299 -0.1065 -0.0646
   14mB      Bm 5198   8.301  10.003  33.617 -0.9230 -0.6670  1.8003
   15mC      Cm 5199   8.135   9.819  33.348  0.5337  0.1958  0.4915
   16mC      Cm 5200   7.910   9.539  33.144 -0.3538  0.4532 -0.6141
   17mR      Rm 5201   8.163   9.746  33.025  0.5335 -1.0839 -0.8310
   18mB      Bm 5202   7.770   9.203  33.129  0.1936  0.1267 -0.0993
   19mA      Am 5203   7.716   8.833  33.149  0.7323  0.3433  0.2418
   20mB      Bm 5204   7.904   8.516  33.196 -0.6584 -0.4817  0.2487
   21mC      Cm 5205   8.187   8.275  33.258 -0.5354  1.5824  0.0586
   22mC      Cm 5206   8.524   8.144  33.455 -0.1158 -0.1729 -0.3176
   23mR      Rm 5207   8.460   8.140  33.121  0.5205  0.7923  0.4292
   24mB      Bm 5208   8.801   8.166  33.698  0.0435 -0.1015 -1.3381
   25mA      Am 5209   9.083   8.300  33.909 -0.4277  0.3965  0.3270
   26mB      Bm 5210   9.314   8.581  33.970 -0.5549  0.1266  0.3544
   27mC      Cm 5211   9.471   8.916  33.912  0.3689 -0.7796 -0.0628
   28mC      Cm 5212   9.469   9.314  33.833 -0.2451  0.4810 -0.5956
   29mR      Rm 5213   9.683   9.087  33.706  1.6268  0.4721 -1.4771
   30mB      Bm 5214   9.298   9.632  33.764 -0.5677  0.4162  0.4353
   31mA      Am 5215   9.066   9.878  33.592  0.0233  1.2342 -0.0466
   32mB      Bm 5216   8.827   9.873  33.304 -0.1979  0.0441  0.2016
   33mC      Cm 5217   8.637   9.766  33.006 -0.3284  0.3501 -0.0538
   34mC      Cm 5218   8.390   9.536  32.762 -0.9392  0.7293 -0.7000
   35mR      Rm 5219   8.655   9.719  32.659 -1.1925  0.7009  0.7281
   36mB      Bm 5220   8.203   9.226  32.698 -0.4468 -0.1397  0.0481
   37mA      Am 5221   8.084   8.889  32.656  0.4626  0.2038  0.2572
   38mB      Bm 5222   8.202   8.536  32.653 -0.4714 -0.0984  0.0064
   39mC      Cm 5223   8.417   8.233  32.657  0.2757  1.0743  0.1294
   40mC      Cm 5224   8.707   8.013  32.839  0.5513  0.1431  0.5512
   41mR      Rm 5225   8.666   8.073  32.509 -1.5230 -0.5400 -0.3116
   42mB      Bm 5226   8.961   7.943  33.092 -0.5727  0.8233  1.0120
   43mA      Am 5227   9.253   8.007  33.314  0.6176 -0.3830 -0.8119
   44mB      Bm 5228   9.525   8.243  33.434  0.3140 -0.3934 -0.4074
   45mC      Cm 5229   9.759   8.547  33.425  0.0160  1.0310 -1.3981
   46mC      Cm 5230   9.805   8.947  33.352 -0.6880 -0.1542 -0.3374
   47mR      Rm 5231  10.011   8.689  33.256  1.0814 -2.0805  1.1654
   48mB      Bm 5232   9.699   9.291  33.269  1.5782  0.4247 -0.6430
   49mA      Am 5233   9.537   9.560  33.074 -0.7427 -0.0045  0.1156
   50mB      Bm 5234   9.320   9.646  32.782 -0.6999 -0.3795 -1.1478
   51mC      Cm 5235   9.099   9.631  32.485  1.0726 -0.6936 -0.1220
   52mC      Cm 5236   8.804   9.445  32.268 -0.4229  0.4507  0.5483
   53mR      Rm 5237   9.083   9.586  32.142  0.4015 -0.5285 -1.2782
   54mB      Bm 5238   8.547   9.182  32.202 -0.0470  0.5841  0.2206
   55mA      Am 5239   8.423   8.836  32.141 -0.3667 -0.6264 -0.1228
   56mB      Bm 5240   8.467   8.470  32.129 -0.1331  0.5427 -0.1385
   57mC      Cm 5241   8.617   8.130  32.147 -0.3301 -0.5088 -0.6011
   58mC      Cm 5242   8.880   7.871  32.317  0.9851  0.3107  0.7278
   59mR      Rm 5243   8.858   7.956  31.995 -0.1692  0.1812  0.9170
   60mB      Bm 5244   9.109   7.770  32.589 -0.3354  0.3385  0.0082
   61mA      Am 5245   9.409   7.819  32.802  0.5676 -0.3917  0.1123
   62mB      Bm 5246   9.701   8.029  32.897 -0.3698 -0.8895 -0.3793
   63mC      Cm 5247   9.954   8.305  32.906 -0.8277  1.6343  0.3393
   64mC      Cm 5248  10.086   8.687  32.873  0.0875  0.0767  0.8931
   65mR      Rm 5249  10.225   8.412  32.741 -0.5197  0.7190  0.1073
   66mB      Bm 5250  10.022   9.048  32.800  0.1259 -0.7319  1.4838
   67mA      Am 5251   9.904   9.356  32.620  0.6110 -0.8718 -0.0318
   68mB      Bm 5252   9.696   9.479  32.336  0.2579 -0.9816 -0.6544
   69mC      Cm 5253   9.509   9.491  32.015 -0.1871  0.5224 -0.1140
   70mC      Cm 5254   9.224   9.383  31.747  0.9470  0.0606 -0.1158
   71mR      Rm 5255   9.540   9.480  31.679 -0.0509  0.5565 -0.7573
   72mB      Bm 5256   8.935   9.171  31.646 -1.0562 -0.4318 -0.3276
   73mA      Am 5257   8.705   8.899  31.557 -0.5316  0.3918 -0.3787
   74mB      Bm 5258   8.695   8.539  31.517 -0.8386  1.1652  0.0147
   75mC      Cm 5259   8.785   8.184  31.491 -0.2424 -0.6686  0.5050
   76mC      Cm 5260   8.984   7.845  31.585  0.9139  0.0412  1.1744
   77mR      Rm 5261   8.900   7.951  31.280 -0.3713 -1.1759  0.5593
   78mB      Bm 5262   9.205   7.643  31.795 -0.2847  0.2339  0.3584
   79mA      Am 5263   9.506   7.524  31.990  0.4670 -0.0078  0.4904
   80mB      Bm 5264   9.860   7.597  32.058 -0.3497  0.8600 -0.2243
   81mC      Cm 5265  10.188   7.759  32.051 -0.5796 -0.5899 -1.2662
   82mC      Cm 5266  10.451   8.073  32.060  0.1745 -0.6461  0.5735
   83mR      Rm 5267  10.435   7.818  31.833 -1.3008  0.3789 -1.0484
   84mB      Bm 5268  10.534   8.434  32.085  0.0967 -0.0912  0.4237
   85mA      Am 5269  10.549   8.806  32.019 -0.1519 -0.0584  0.0006
   86mB      Bm 5270  10.443   9.057  31.777 -0.7528 -0.2673  0.5023
   87mC      Cm 5271  10.310   9.244  31.488  1.1398  0.5154  0.0819
   88mC      Cm 5272  10.015   9.292  31.202 -0.4409  1.2738 -0.8259
   89mR      Rm 5273  10.348   9.305  31.152 -1.3317 -1.7369 -1.4113
   90mB      Bm 5274   9.698   9.229  31.028 -0.9528 -0.6147  1.3986
   91mA      Am 5275   9.442   9.024  30.856  0.7713 -0.3358 -0.3555
   92mB      Bm 5276   9.387   8.703  30.696 -0.1566  0.4213  0.3522
   93mC      Cm 5277   9.429   8.351  30.581 -1.0013  0.4823 -0.7708
   94mC      Cm 5278   9.529   7.963  30.655  0.4761 -0.6650  0.1590
   95mR      Rm 5279   9.624   8.153  30.398 -1.6765  0.1253 -0.8471
   96mB      Bm 5280   9.617   7.664  30.866  0.6279 -0.3904 -0.1805
   97mA      Am 5281   9.826   7.487  31.100 -0.1437 -0.0500  0.9285
   98mB      Bm 5282  10.133   7.442  31.292 -0.5900  0.7403 -0.6409
   99mC      Cm 5283  10.469   7.494  31.421 -0.3938 -0.5454 -2.0456
  100mC      Cm 5284  10.777   7.713  31.582  0.6474  0.0004 -0.9737
  101mR      Rm 5285  10.791   7.499  31.331  0.1150 -1.0960  1.2698
  102mB      Bm 5286  10.941   8.017  31.725  0.0753  1.3087  0.8818
  103mA      Am 5287  11.063   8.361  31.723 -0.2717 -0.7074  0.0460
  104mB      Bm 5288  11.133   8.673  31.522  0.2775 -0.6688 -0.3029
  105mC      Cm 5289  11.145   8.912  31.243  0.4945 -0.4110  0.4525
  106mC      Cm 5290  11.002   9.138  30.931 -0.6217  0.1002  1.0632
  107mR      Rm 5291  11.306   8.988  30.957 -1.5536 -0.4187 -0.6606
  108tB      Bt 5292  10.767   9.297  30.698  0.1378 -0.8956  0.5399
    1hA      Ah 5293   0.827  10.598  28.881  0.2144  0.2775  0.1114
    2mB      Bm 5294   1.017  10.903  28.838 -0.9011  0.1252 -0.8844
    3mC      Cm 5295   1.232  11.193  28.921 -0.2947 -0.8404  0.2302
    4mC      Cm 5296   1.528  11.395  29.112  0.1316 -0.8215 -0.6129
    5mR      Rm 5297   1.196  11.489  29.100  1.3067  0.3479  0.1989
    6mB      Bm 5298   1.822  11.411  29.324 -0.0967 -0.0305 -0.9013
    7mA      Am 5299   2.057  11.343  29.605  1.2148 -0.4135 -0.0341
    8mB      Bm 5300   2.115  11.130  29.910  0.2933  0.2289  0.3429
    9mC      Cm 5301   2.051  10.879  30.177 -0.0247  0.0410 -0.6941
   10mC      Cm 5302   1.940  10.510  30.297 -1.0451  0.4736  0.1151
   11mR      Rm 5303   1.867  10.804  30.458 -1.2809 -1.0381 -0.2438
   12mB      Bm 5304   1.843  10.160  30.252 -0.0254  0.3256 -0.3400
   13mA      Am 5305   1.635   9.862  30.137  0.6003  0.0937  0.6322
   14mB      Bm 5306   1.316   9.776  29.985  0.1256  1.2634 -0.5605
   15mC      Cm 5307   0.982   9.805  29.831 -0.3554 -1.3772  0.0333
   16mC      Cm 5308   0.720  10.001  29.584 -0.1826  0.0002 -0.7663
   17mR      Rm 5309   0.654   9.860  29.891 -0.0975  0.1335  0.2964
   18mB      Bm 5310   0.616  10.272  29.342  1.1283 -0.1905  1.3183
   19mA      Am 5311   0.559  10.597  29.185 -0.5716  0.0522  0.2834
   20mB      Bm 5312   0.578  10.963  29.212 -0.5737 -0.4152 -0.4240
   21mC      Cm 5313   0.634  11.307  29.335 -0.4409  0.0747 -0.2647
   22mC      Cm 5314   0.832  11.602  29.533 -0.2065  0.3554  0.4474
   23mR      Rm 5315   0.505  11.550  29.525  0.1347 -0.3980  0.4771
   24mB      Bm 5316   1.097  11.747  29.727 -0.1292 -0.0233 -0.9013
   25mA      Am 5317   1.346  11.811  29.991  0.5235  0.1388 -1.6742
   26mB      Bm 5318   1.491  11.735  30.321  0.3483 -0.1914  0.1153
   27mC      Cm 5319   1.543  11.587  30.663 -0.5773  0.8569  0.7536
   28mC      Cm 5320   1.565  11.265  30.922 -0.1290 -0.1043 -0.1804
   29mR      Rm 5321   1.390  11.540  30.971 -0.9101 -0.1763 -1.1268
   30mB      Bm 5322   1.565  10.909  31.040 -0.3999 -0.6370 -0.8778
   31mA      Am 5323   1.450  10.565  31.106  0.6853 -0.4460 -0.0897
   32mB      Bm 5324   1.171  10.322  31.067  0.2093 -0.7025 -0.1098
   33mC      Cm 5325   0.840  10.169  30.986  0.3931 -0.1548 -0.3212
   34mC      Cm 5326   0.523  10.076  30.741 -0.8537  0.7706 -0.7361
   35mR      Rm 5327   0.510  10.154  31.075 -1.5131 -0.1949 -0.8118
   36mB      Bm 5328   0.325  10.128  30.445 -0.1959 -0.1352  0.8945
   37mA      Am 5329   0.135  10.310  30.162  0.1626  0.0989 -0.1490
   38mB      Bm 5330  -0.015  10.619  30.017  0.3642  1.5704 -0.1579
   39mC      Cm 5331  -0.124  10.974  29.981  0.8778  0.1691 -0.1768
   40mC      Cm 5332  -0.058  11.376  29.991  0.0252  0.5252 -0.4086
   41mR      Rm 5333  -0.350  11.206  30.061 -1.9203  0.4007 -0.0255
   42mB      Bm 5334   0.148  11.670  30.080  0.1346  0.0506 -1.0176
   43mA      Am 5335   0.360  11.898  30.281  0.6309  0.3959 -0.0550
   44mB      Bm 5336   0.540  11.985  30.594  0.6184 -0.1398 -0.0120
   45mC      Cm 5337   0.663  11.964  30.943 -0.1971  0.8132 -0.0501
   46mC      Cm 5338   0.806  11.721  31.229 -1.5077  0.4546  0.6342
   47mR      Rm 5339   0.546  11.941  31.257  0.6840 -0.2579 -0.0767
   48mB      Bm 5340   0.946  11.403  31.352  0.2677 -0.6386  1.2589
   49mA      Am 5341   0.970  11.047  31.456 -0.5300  0.9948 -0.2474
   50mB      Bm 5342   0.768  10.745  31.511 -0.3726 -1.0248  0.3780
   51mC      Cm 5343   0.488  10.498  31.520 -1.1984 -0.1237 -1.1480
   52mC      Cm 5344   0.162  10.332  31.344 -0.0852  0.8388  0.3627
   53mR      Rm 5345   0.190  10.428  31.667 -0.8005  0.3727 -0.4332
   54mB      Bm 5346  -0.096  10.312  31.085  0.2619 -1.2118  0.1446
   55mA      Am 5347  -0.347  10.416  30.837  0.3151 -0.0423  1.4060
   56mB      Bm 5348  -0.510  10.684  30.634  0.1641  0.2923  0.2794
   57mC      Cm 5349  -0.587  11.022  30.509 -0.3773 -0.7505 -1.0096
   58mC      Cm 5350  -0.507  11.418  30.435  0.4309 -0.4857  0.2948
   59mR      Rm 5351  -0.779  11.293  30.596 -0.7597  1.4033 -0.0122
   60mB      Bm 5352  -0.292  11.727  30.426 -1.3985  0.6885 -0.7043
   61mA      Am 5353  -0.067  12.014  30.533  0.1643  0.1448  0.5263
   62mB      Bm 5354   0.088  12.181  30.814  0.0756  0.0929  0.1580
   63mC      Cm 5355   0.165  12.257  31.171  0.5690 -0.0343 -0.8177
   64mC      Cm 5356   0.256  12.150  31.559  0.4021  0.4822  0.8107
   65mR      Rm 5357   0.031  12.380  31.470 -1.0170  0.4141 -0.2962
   66mB      Bm 5358   0.317  11.891  31.820 -0.2775  0.1891 -0.6444
   67mA      Am 5359   0.243  11.591  32.016 -0.0331 -0.6751 -0.2763
   68mB      Bm 5360   0.011  11.312  32.081  0.3321 -0.4597  0.9156
   69mC      Cm 5361  -0.288  11.090  32.055  0.6027  0.2978  0.7238
   70mC      Cm 5362  -0.551  10.865  31.827 -0.5667 -1.7377 -0.2926
   71mR      Rm 5363  -0.622  11.053  32.098 -0.0991 -1.2963 -0.0264
   72mB      Bm 5364  -0.716  10.744  31.526 -0.7789 -0.1201 -0.5933
   73mA      Am 5365  -0.900  10.784  31.201 -0.1455 -0.3196  0.3993
   74mB      Bm 5366  -1.026  11.023  30.961  0.8547 -0.1158  0.4529
   75mC      Cm 5367  -1.089  11.367  30.821 -0.7145  0.2124 -1.0794
   76mC      Cm 5368  -0.989  11.744  30.705 -0.2260 -0.4551  0.1051
   77mR      Rm 5369  -1.272  11.636  30.855  1.2912 -0.7356  1.3677
   78mB      Bm 5370  -0.759  12.031  30.673 -0.0076  0.2750  0.0485
   79mA      Am 5371  -0.523  12.301  30.783 -0.4103 -0.4833 -0.1311
   80mB      Bm 5372  -0.367  12.496  31.058  0.4698 -0.2034  0.5591
   81mC      Cm 5373  -0.279  12.603  31.402 -0.7818  0.4355  0.7338
   82mC      Cm 5374  -0.187  12.508  31.792  0.8341  0.2646 -0.1908
   83mR      Rm 5375  -0.401  12.745  31.681  1.6320 -0.2039 -0.1293
   84mB      Bm 5376  -0.103  12.295  32.080 -0.0814  1.2976 -0.2999
   85mA      Am 5377  -0.145  12.035  32.342  0.5133 -0.1875 -0.0504
   86mB      Bm 5378  -0.350  11.781  32.492 -0.5834 -0.1383  0.5460
   87mC      Cm 5379  -0.649  11.581  32.571  0.8170  0.1301  1.0638
   88mC      Cm 5380  -0.964  11.345  32.466 -0.2064 -0.0388  1.1679
   89mR      Rm 5381  -0.956  11.589  32.703  0.1512  1.1699 -0.3662
   90mB      Bm 5382  -1.176  11.180  32.212  0.7195  0.3599 -0.2004
   91mA      Am 5383  -1.389  11.131  31.926 -0.4673 -0.5158  0.0883
   92mB      Bm 5384  -1.548  11.297  31.632 -0.2269 -0.1213 -0.3151
   93mC      Cm 5385  -1.643  11.569  31.394  0.3243  0.4381 -0.2612
   94mC      Cm 5386  -1.573  11.896  31.161 -0.0851  0.2527 -0.1220
   95mR      Rm 5387  -1.847  11.827  31.354 -0.3396 -0.2535  1.3542
   96mB      Bm 5388  -1.350  12.167  31.038  0.0875 -0.0314  0.3030
   97mA      Am 5389  -1.107  12.446  31.021 -0.8727  0.3702  0.0251
   98mB      Bm 5390  -0.908  12.687  31.231 -0.1059  0.1298 -0.0530
   99mC      Cm 5391  -0.782  12.854  31.534 -0.0245 -0.3960  0.6861
  100mC      Cm 5392  -0.651  12.843  31.930 -0.0134  0.7178 -0.1229
  101mR      Rm 5393  -0.878  13.041  31.793 -0.4646  0.7693 -0.9570
  102mB      Bm 5394  -0.537  12.716  32.252 -0.7801  0.8175  0.3047
  103mA      Am 5395  -0.514  12.534  32.577  0.2030 -1.0665 -0.5738
  104mB      Bm 5396  -0.685  12.326  32.830  0.5301  0.2615  0.5380
  105mC      Cm 5397  -0.973  12.144  32.971  0.0385 -1.9535 -0.2209
  106mC      Cm 5398  -1.295  11.894  32.989 -0.1378  0.6867  0.1028
  107mR      Rm 5399  -1.258  12.190  33.144  0.0528  0.4651 -0.1887
  108tB      Bt 5400  -1.541  11.668  32.822 -0.5098  0.1794 -0.0145
    1hA      Ah 5401   0.380   1.223  21.784 -0.2636  0.2183 -0.4781
    2mB      Bm 5402   0.491   0.968  22.036 -0.5635 -0.3458 -0.1606
    3mC      Cm 5403   0.479   0.719  22.317  0.1862  0.1609  0.2012
    4mC      Cm 5404   0.354   0.364  22.479  0.7075  0.9822 -0.7141
    5mR      Rm 5405   0.403   0.653  22.646 -0.7456 -0.3442  0.7327
    6mB      Bm 5406   0.129   0.065  22.478 -0.4057 -0.2579 -0.7762
    7mA      Am 5407  -0.168  -0.144  22.453  1.1417  0.6039  0.1246
    8mB      Bm 5408  -0.536  -0.184  22.376 -1.1760  0.3205  0.4577
    9mC      Cm 5409  -0.873  -0.090  22.280  0.3508 -0.8014  0.1573
   10mC      Cm 5410  -1.141   0.121  22.057  0.1199  0.0830 -0.8169
   11mR      Rm 5411  -1.173   0.052  22.383 -0.7374  0.6568  0.7013
   12mB      Bm 5412  -1.272   0.373  21.815  0.1855  0.1488  1.1398
   13mA      Am 5413  -1.347   0.672  21.616 -0.0102 -0.0005 -0.0638
   14mB      Bm 5414  -1.240   1.027  21.603  0.1214  0.0727 -0.6628
   15mC      Cm 5415  -1.041   1.325  21.695  0.0302  0.0923  1.0188
   16mC      Cm 5416  -0.691   1.512  21.808  0.4343 -0.9945  0.1361
   17mR      Rm 5417  -1.004   1.573  21.932 -0.5442  0.2146  0.4415
   18mB      Bm 5418  -0.333   1.540  21.893  0.0425 -0.6752 -0.3370
   19mA      Am 5419  -0.017   1.489  22.078  0.4155 -0.1018  0.4603
   20mB      Bm 5420   0.164   1.317  22.361  0.7114  0.0998  0.7593
   21mC      Cm 5421   0.216   1.115  22.659 -0.9101 -0.3692 -1.0177
   22mC      Cm 5422   0.152   0.785  22.892  0.7066 -0.9721  0.1091
   23mR      Rm 5423   0.163   1.108  22.989  0.1184 -1.1983 -0.0579
   24mB      Bm 5424  -0.002   0.459  22.942  0.1915  0.2317  0.0330
   25mA      Am 5425  -0.259   0.189  22.961  0.2292  0.4354 -0.6726
   26mB      Bm 5426  -0.628   0.105  22.933  0.3704 -0.0640  0.1636
   27mC      Cm 5427  -0.987   0.143  22.870  0.3257 -0.7952 -0.4310
   28mC      Cm 5428  -1.314   0.309  22.678  0.1114 -0.6193 -0.0364
   29mR      Rm 5429  -1.271   0.266  23.013 -1.4203 -0.9618 -0.4362
   30mB      Bm 5430  -1.494   0.522  22.422 -0.0841 -0.7694  0.4455
   31mA      Am 5431  -1.565   0.818  22.214  0.4421 -0.2017 -0.0385
   32mB      Bm 5432  -1.475   1.164  22.141 -0.1212  0.5296  0.3523
   33mC      Cm 5433  -1.331   1.512  22.156 -0.4551 -1.2361 -1.8265
   34mC      Cm 5434  -0.997   1.723  22.238  0.8352 -0.4446 -0.5110
   35mR      Rm 5435  -1.305   1.789  22.350 -0.2206 -1.4937  1.4079
   36mB      Bm 5436  -0.642   1.784  22.310 -0.4117 -0.1502  0.2822
   37mA      Am 5437  -0.322   1.775  22.474 -0.5031 -0.0971  0.5617
   38mB      Bm 5438  -0.135   1.626  22.760 -0.2313 -0.2614 -0.5231
   39mC      Cm 5439  -0.054   1.435  23.062  0.2594 -0.4193  0.7355
   40mC      Cm 5440  -0.060   1.118  23.320  0.2361  0.8752 -0.0222
   41mR      Rm 5441  -0.052   1.447  23.402 -0.1634  0.0259  0.6535
   42mB      Bm 5442  -0.172   0.779  23.422  0.4761 -0.0359 -0.2839
   43mA      Am 5443  -0.413   0.508  23.493 -0.1568  0.0139  0.2017
   44mB      Bm 5444  -0.759   0.384  23.489  0.5155  0.1264  0.4865
   45mC      Cm 5445  -1.127   0.382  23.453 -0.5739 -0.1772 -0.6112
   46mC      Cm 5446  -1.483   0.456  23.270  0.7342 -0.1470  0.4449
   47mR      Rm 5447  -1.421   0.462  23.608 -0.7170  0.6868 -0.0156
   48mB      Bm 5448  -1.689   0.606  23.014  0.1462 -0.7865 -0.0863
   49mA      Am 5449  -1.811   0.870  22.779 -0.5984  0.1652  0.3830
   50mB      Bm 5450  -1.759   1.223  22.660 -1.4937 -0.3246 -0.3656
   51mC      Cm 5451  -1.632   1.577  22.671  0.9639  0.3857  0.2497
   52mC      Cm 5452  -1.342   1.846  22.737  0.4955  0.8674 -0.6589
   53mR      Rm 5453  -1.652   1.868  22.850  0.0095  0.9946 -0.5408
   54mB      Bm 5454  -0.990   1.950  22.795 -0.9315  0.7732 -0.9863
   55mA      Am 5455  -0.652   1.991  22.942  1.4346 -0.7275  0.8531
   56mB      Bm 5456  -0.450   1.894  23.233 -0.6265  0.1655 -0.2604
   57mC      Cm 5457  -0.352   1.740  23.548 -0.2059 -0.4442  0.1670
   58mC      Cm 5458  -0.313   1.425  23.807  0.0943 -1.7454 -0.3572
   59mR      Rm 5459  -0.370   1.759  23.881 -0.4891  1.1930 -0.0045
   60mB      Bm 5460  -0.387   1.075  23.897 -0.3049  0.4609 -0.4195
   61mA      Am 5461  -0.572   0.765  23.960  0.0082 -0.0828 -0.4634
   62mB      Bm 5462  -0.902   0.608  23.988 -0.3930  0.4335  0.8562
   63mC      Cm 5463  -1.269   0.574  23.990  1.3091 -0.2121  0.6897
   64mC      Cm 5464  -1.649   0.646  23.859 -0.4949 -0.2861 -0.9942
   65mR      Rm 5465  -1.532   0.662  24.180 -0.6205 -0.0258  1.0144
   66mB      Bm 5466  -1.885   0.798  23.604  0.1028  0.0371  0.4009
   67mA      Am 5467  -2.033   1.036  23.372 -0.5384 -0.2660  1.0419
   68mB      Bm 5468  -2.024   1.383  23.236 -0.1606 -0.1438 -0.2573
   69mC      Cm 5469  -1.923   1.735  23.209 -0.7700 -0.7490  1.5624
   70mC      Cm 5470  -1.635   2.031  23.205 -0.5729 -0.2284  0.5279
   71mR      Rm 5471  -1.934   2.043  23.354  0.2597 -0.1250 -0.2132
   72mB      Bm 5472  -1.289   2.157  23.228  0.5055  0.8545 -0.6655
   73mA      Am 5473  -0.942   2.242  23.350  0.3190 -0.0584  0.4870
   74mB      Bm 5474  -0.719   2.195  23.632 -0.5027 -0.7391  0.1307
   75mC      Cm 5475  -0.575   2.097  23.959 -0.2322 -1.2559 -0.2421
   76mC      Cm 5476  -0.488   1.837  24.262  0.6494 -0.0674  0.5477
   77mR      Rm 5477  -0.592   2.158  24.281 -0.1037 -0.5746 -0.4105
   78mB      Bm 5478  -0.528   1.502  24.411 -0.0794 -0.5023 -1.3606
   79mA      Am 5479  -0.679   1.179  24.534 -0.4655  0.7092  0.3637
   80mB      Bm 5480  -0.978   0.965  24.604 -0.6565 -0.5095 -0.2821
   81mC      Cm 5481  -1.330   0.869  24.625 -0.7430  0.4052 -1.8409
   82mC      Cm 5482  -1.718   0.833  24.507 -0.2372 -0.4405 -0.4472
   83mR      Rm 5483  -1.605   0.896  24.818  0.6065  0.2830  0.5305
   84mB      Bm 5484  -1.974   0.904  24.247  0.5206 -0.6233 -0.4058
   85mA      Am 5485  -2.161   1.103  23.985  0.4697 -0.2852 -0.4956
   86mB      Bm 5486  -2.232   1.425  23.821 -0.5308  0.4481  0.2037
   87mC      Cm 5487  -2.217   1.795  23.752  0.1762  0.3953 -0.5711
   88mC      Cm 5488  -2.008   2.137  23.706  0.0233 -1.1106  0.4080
   89mR      Rm 5489  -2.293   2.095  23.877  0.0637  0.6783  0.2392
   90mB      Bm 5490  -1.690   2.337  23.729  0.4740  0.3396 -0.2962
   91mA      Am 5491  -1.369   2.469  23.843 -0.5854 -0.5438  0.2734
   92mB      Bm 5492  -1.093   2.473  24.099 -0.1469 -0.2468 -0.2176
   93mC      Cm 5493  -0.884   2.402  24.402  0.3978 -1.1652 -0.0713
   94mC      Cm 5494  -0.742   2.164  24.693 -0.3837  0.3098 -0.6588
   95mR      Rm 5495  -0.877   2.463  24.737 -0.8195 -0.0635  1.2777
   96mB      Bm 5496  -0.688   1.839  24.853  0.2415  1.0484 -0.9130
   97mA      Am 5497  -0.777   1.509  25.008  0.2093  0.3195 -0.0310
   98mB      Bm 5498  -1.053   1.286  25.112 -1.3166 -0.3591  0.8760
   99mC      Cm 5499  -1.398   1.162  25.174 -0.0758  0.2334 -0.1818
  100mC      Cm 5500  -1.790   1.121  25.069  0.1738  0.4397  0.2276
  101mR      Rm 5501  -1.664   1.211  25.367 -1.1270 -0.4909  0.0412
  102mB      Bm 5502  -2.093   1.149  24.867  0.6305 -0.3485  0.1043
  103mA      Am 5503  -2.346   1.314  24.649  0.2343  0.2414 -0.3187
  104mB      Bm 5504  -2.493   1.597  24.459 -0.7066  0.9442 -0.0995
  105mC      Cm 5505  -2.535   1.944  24.348  0.4195 -0.0497 -0.0268
  106mC      Cm 5506  -2.392   2.310  24.241  0.2724 -0.4059  0.3956
  107mR      Rm 5507  -2.637   2.246  24.468 -1.2541  1.9236  0.3886
  108tB      Bt 5508  -2.158   2.568  24.145 -0.3374 -1.0397 -0.1955
    1hA      Ah 5509   6.670   6.292  30.821 -0.2275 -0.0922  0.0984
    2mB      Bm 5510   6.521   5.952  30.835  0.2896 -0.3016 -0.6473
    3mC      Cm 5511   6.302   5.651  30.820  0.5046  1.7793  0.7169
    4mC      Cm 5512   6.021   5.392  30.654 -1.3140 -0.1540 -0.8595
    5mR      Rm 5513   6.059   5.471  30.973  0.9819 -1.6003  0.3757
    6mB      Bm 5514   5.763   5.314  30.388 -0.7642  0.6754  0.7145
    7mA      Am 5515   5.471   5.336  30.158  0.5683 -0.6609 -0.1126
    8mB      Bm 5516   5.179   5.522  30.015  0.3835  0.0383  0.3106
    9mC      Cm 5517   4.956   5.807  29.947  0.4095 -0.4458  0.4271
   10mC      Cm 5518   4.905   6.212  29.873  0.6979 -0.3336 -0.1110
   11mR      Rm 5519   4.704   6.016  30.065 -0.6521 -0.8783 -0.1221
   12mB      Bm 5520   5.005   6.562  29.853  0.6529 -0.5217 -0.1434
   13mA      Am 5521   5.174   6.871  29.953 -0.3013  1.0331  0.1322
   14mB      Bm 5522   5.350   7.037  30.232  0.7596 -0.3368  0.7994
   15mC      Cm 5523   5.496   7.074  30.583 -0.2817  1.1542  0.5543
   16mC      Cm 5524   5.674   6.907  30.912  0.0915 -1.0473  0.3466
   17mR      Rm 5525   5.398   7.104  30.894  1.0296 -0.5903  0.0567
   18mB      Bm 5526   5.840   6.616  31.079 -0.3192 -0.1291 -0.5980
   19mA      Am 5527   5.942   6.276  31.210 -0.9226 -0.5414  0.8436
   20mB      Bm 5528   5.881   5.918  31.251  0.8885  1.4290  0.0986
   21mC      Cm 5529   5.721   5.581  31.227 -0.1361  1.0970 -0.2110
   22mC      Cm 5530   5.538   5.267  31.051 -0.9102  0.5494 -0.0295
   23mR      Rm 5531   5.465   5.398  31.359 -1.5422 -1.6380  1.8222
   24mB      Bm 5532   5.373   5.061  30.791 -0.5832 -0.6558 -0.6511
   25mA      Am 5533   5.145   4.941  30.530  0.2724 -0.2739  0.1775
   26mB      Bm 5534   4.853   5.026  30.328 -0.2150  0.3597  1.1856
   27mC      Cm 5535   4.556   5.197  30.187  0.8398  0.9089 -0.4109
   28mC      Cm 5536   4.334   5.497  30.045  0.2681 -0.6058  0.4362
   29mR      Rm 5537   4.234   5.268  30.265 -0.1440  2.5389  0.6562
   30mB      Bm 5538   4.274   5.855  29.938  0.4934 -0.5429  0.2788
   31mA      Am 5539   4.270   6.224  29.913 -0.7629  0.1166  0.9173
   32mB      Bm 5540   4.347   6.524  30.122  0.2647  0.6356 -0.4656
   33mC      Cm 5541   4.437   6.751  30.406  0.0206 -0.3409  0.6443
   34mC      Cm 5542   4.678   6.859  30.722 -0.0557  1.1216 -0.3154
   35mR      Rm 5543   4.331   6.860  30.707 -0.3203 -1.2259 -0.3621
   36mB      Bm 5544   4.939   6.818  30.976  1.1089 -0.0681  0.1710
   37mA      Am 5545   5.146   6.676  31.232  0.1280  0.2046  0.2960
   38mB      Bm 5546   5.193   6.398  31.468 -0.2460  0.7872 -0.4137
   39mC      Cm 5547   5.155   6.099  31.672 -0.6764 -0.7541  0.4312
   40mC      Cm 5548   5.076   5.704  31.751  0.7683  0.2400 -0.5260
   41mR      Rm 5549   4.993   5.976  31.941 -0.2049 -0.4435  0.1838
   42mB      Bm 5550   4.922   5.377  31.652 -0.6087  0.4505  0.8406
   43mA      Am 5551   4.686   5.148  31.506  1.4428  0.4483  0.4829
   44mB      Bm 5552   4.349   5.074  31.359 -0.5832 -0.3442 -1.4579
   45mC      Cm 5553   3.997   5.113  31.242  0.0315 -0.3269  0.0429
   46mC      Cm 5554   3.672   5.294  31.071 -0.0747  1.3368 -0.2013
   47mR      Rm 5555   3.680   5.095  31.349  1.5424 -0.1634 -1.8036
   48mB      Bm 5556   3.481   5.581  30.933  0.2145  0.3399  0.5706
   49mA      Am 5557   3.332   5.915  30.916 -1.0202  0.2004 -0.6405
   50mB      Bm 5558   3.306   6.245  31.063  0.6889  1.0273 -0.0861
   51mC      Cm 5559   3.358   6.522  31.293  1.2510 -0.1681 -0.1567
   52mC      Cm 5560   3.573   6.779  31.522  0.2501 -0.3771 -0.0059
   53mR      Rm 5561   3.289   6.622  31.605  0.1372  1.3895 -0.6186
   54mB      Bm 5562   3.894   6.914  31.654  0.1697  0.2797 -0.7266
   55mA      Am 5563   4.219   6.939  31.812  0.0910  0.0240  0.1869
   56mB      Bm 5564   4.414   6.732  32.049 -0.3774 -0.7915 -0.8844
   57mC      Cm 5565   4.529   6.445  32.253 -0.0958  0.5576 -0.1350
   58mC      Cm 5566   4.594   6.042  32.303  0.5237 -0.0317  1.1007
   59mR      Rm 5567   4.463   6.255  32.524  0.0139  0.1469  0.1965
   60mB      Bm 5568   4.591   5.684  32.200 -0.6391 -0.2865  0.2347
   61mA      Am 5569   4.452   5.373  32.047  1.0459  0.7004  0.6018
   62mB      Bm 5570   4.162   5.206  31.906  0.3668 -0.3684  0.6657
   63mC      Cm 5571   3.820   5.152  31.783  0.9030 -0.8109 -0.5487
   64mC      Cm 5572   3.468   5.281  31.613 -0.4915 -0.0411 -0.6070
   65mR      Rm 5573   3.515   5.109  31.896 -1.4523  0.2876  1.0571
   66mB      Bm 5574   3.236   5.522  31.446  0.2777  0.6850 -1.1778
   67mA      Am 5575   3.026   5.820  31.388  0.0946  0.7153 -1.0211
   68mB      Bm 5576   2.939   6.137  31.550  0.7738  0.5053  0.1437
   69mC      Cm 5577   2.932   6.433  31.788 -0.1076 -1.3232  0.0815
   70mC      Cm 5578   3.075   6.714  32.046 -0.4296 -0.4239  0.9598
   71mR      Rm 5579   2.777   6.540  32.063 -0.9967  1.9451  0.2656
   72mB      Bm 5580   3.351   6.872  32.237  0.6710 -0.7224 -0.2321
   73mA      Am 5581   3.639   6.906  32.464 -0.2752 -0.9928 -0.2130
   74mB      Bm 5582   3.895   6.756  32.684  0.2006  0.7071  0.5246
   75mC      Cm 5583   4.080   6.501  32.880 -0.6119 -0.7684 -0.1107
   76mC      Cm 5584   4.203   6.112  32.930 -0.2062  1.0847  1.2182
   77mR      Rm 5585   4.053   6.320  33.159 -0.2658 -2.0362 -2.6475
   78mB      Bm 5586   4.223   5.756  32.800 -0.1248  0.8267 -0.1508
   79mA      Am 5587   4.150   5.429  32.647  0.2292 -0.4748 -0.5317
   80mB      Bm 5588   3.883   5.240  32.472  0.6501 -0.4240  1.4916
   81mC      Cm 5589   3.540   5.154  32.338  0.4667  1.0865 -1.2146
   82mC      Cm 5590   3.186   5.240  32.144  0.3032 -0.6145 -0.4764
   83mR      Rm 5591   3.236   5.043  32.420  1.2694  0.5073 -0.3118
   84mB      Bm 5592   2.949   5.456  31.988 -0.0645 -0.2172 -0.0202
   85mA      Am 5593   2.724   5.739  31.906  0.5599 -0.4605  0.1250
   86mB      Bm 5594   2.567   6.045  32.039 -0.6935 -0.4960  0.3693
   87mC      Cm 5595   2.468   6.331  32.259  0.9341  0.4717 -0.8984
   88mC      Cm 5596   2.506   6.623  32.543 -1.3236 -0.4275 -0.0168
   89mR      Rm 5597   2.272   6.376  32.529  0.1579  0.1098  0.2526
   90mB      Bm 5598   2.673   6.854  32.756  0.6119  0.3494 -0.1552
   91mA      Am 5599   2.893   6.982  33.019 -0.5254 -0.5827  0.6052
   92mB      Bm 5600   3.125   6.896  33.288 -0.0351  0.3052 -0.0746
   93mC      Cm 5601   3.333   6.719  33.534  1.2473 -0.3499 -0.3765
   94mC      Cm 5602   3.575   6.400  33.640  0.0815  0.0274  0.0317
   95mR      Rm 5603   3.333   6.540  33.818 -0.5714  0.4706 -0.2848
   96mB      Bm 5604   3.742   6.073  33.558  1.0035 -0.7743 -0.2476
   97mA      Am 5605   3.779   5.726  33.468 -0.1948 -0.1375 -0.3088
   98mB      Bm 5606   3.608   5.433  33.327 -0.6200  0.4501 -0.0315
   99mC      Cm 5607   3.329   5.249  33.174 -0.2411 -0.6945 -1.5357
  100mC      Cm 5608   3.026   5.167  32.912 -0.3626  1.4316 -0.5530
  101mR      Rm 5609   3.036   5.107  33.253  1.7624  0.0293 -0.9076
  102mB      Bm 5610   2.784   5.242  32.641 -0.5371 -0.3633 -0.7862
  103mA      Am 5611   2.523   5.404  32.439  0.1299 -0.2245 -0.6695
  104mB      Bm 5612   2.255   5.653  32.461 -0.7714  0.7113  0.1653
  105mC      Cm 5613   2.014   5.908  32.586  0.6985 -0.4291  0.4564
  106mC      Cm 5614   1.918   6.259  32.784 -0.0073 -1.6478 -0.0359
  107mR      Rm 5615   1.768   5.955  32.811 -0.0637 -1.6687 -1.3667
  108tB      Bt 5616   1.849   6.624  32.807 -0.3442 -0.2276  0.8831
    1hA      Ah 5617   4.333   0.049  29.855  0.8784  0.1929 -0.1104
    2mB      Bm 5618   4.616  -0.190  29.822 -0.6707 -0.2318  0.2567
    3mC      Cm 5619   4.814  -0.484  29.704 -0.0862 -0.3002  0.2982
    4mC      Cm 5620   4.973  -0.731  29.424  0.4658 -0.0178 -0.8905
    5mR      Rm 5621   4.817  -0.823  29.720 -0.5393 -0.5610  0.3628
    6mB      Bm 5622   5.059  -0.873  29.092  0.3978  0.4213  0.1091
    7mA      Am 5623   5.017  -1.008  28.745 -0.0825 -0.1313  0.1844
    8mB      Bm 5624   4.786  -1.110  28.471 -0.1968  0.5551 -0.2348
    9mC      Cm 5625   4.472  -1.173  28.288 -0.4317 -1.1648 -0.2853
   10mC      Cm 5626   4.103  -1.076  28.159 -0.3192  0.8526  0.7556
   11mR      Rm 5627   4.197  -1.379  28.272 -0.3001  1.9354 -0.1433
   12mB      Bm 5628   3.804  -0.859  28.145  0.9335 -1.1320 -1.0712
   13mA      Am 5629   3.522  -0.641  28.263 -0.2086 -0.7243  0.4713
   14mB      Bm 5630   3.359  -0.517  28.564  0.1248  0.2342  0.1547
   15mC      Cm 5631   3.268  -0.471  28.922  0.1590 -1.4062  0.2847
   16mC      Cm 5632   3.371  -0.420  29.322 -0.7662  0.6239 -0.4461
   17mR      Rm 5633   3.133  -0.618  29.191 -0.1074  0.1567  0.6372
   18mB      Bm 5634   3.622  -0.417  29.587 -0.1497 -0.6050  0.8747
   19mA      Am 5635   3.914  -0.503  29.796 -0.0137  0.3319  0.3525
   20mB      Bm 5636   4.202  -0.720  29.890 -0.2457  0.2358  0.4171
   21mC      Cm 5637   4.464  -0.971  29.904 -0.4682  0.0489 -0.0467
   22mC      Cm 5638   4.706  -1.234  29.705  0.4569 -0.7342  0.9639
   23mR      Rm 5639   4.521  -1.297  29.975  1.3349 -0.5202 -1.0054
   24mB      Bm 5640   4.864  -1.401  29.407 -0.3048  0.2672 -0.2641
   25mA      Am 5641   4.883  -1.579  29.075  0.0002 -0.8294 -0.2737
   26mB      Bm 5642   4.698  -1.723  28.787  0.3098  0.0970  0.7178
   27mC      Cm 5643   4.404  -1.831  28.579 -0.8573  0.6841 -0.4795
   28mC      Cm 5644   4.032  -1.799  28.408 -0.7210  0.2720  0.7924
   29mR      Rm 5645   4.175  -2.065  28.555  0.4539  1.5159 -1.3527
   30mB      Bm 5646   3.716  -1.633  28.352  1.7678 -0.9357  0.1045
   31mA      Am 5647   3.402  -1.450  28.404 -0.1560 -0.5432  0.3023
   32mB      Bm 5648   3.181  -1.285  28.650  0.1098  0.7885 -0.1087
   33mC      Cm 5649   3.054  -1.179  28.982 -1.8645 -0.0795 -0.7205
   34mC      Cm 5650   3.103  -1.051  29.369  0.4097 -0.8745 -0.2439
   35mR      Rm 5651   2.891  -1.286  29.249  0.0495  0.2999 -0.9189
   36mB      Bm 5652   3.301  -0.945  29.653 -0.2846  0.2606  0.5618
   37mA      Am 5653   3.560  -0.942  29.926  0.3673  0.6264 -0.0073
   38mB      Bm 5654   3.837  -1.135  30.064  0.8574  1.1204  0.5568
   39mC      Cm 5655   4.072  -1.417  30.106  0.5330 -0.2306 -0.0840
   40mC      Cm 5656   4.363  -1.660  29.963 -0.6698  0.2647 -0.2645
   41mR      Rm 5657   4.122  -1.742  30.175 -1.1204 -0.0301 -0.2116
   42mB      Bm 5658   4.567  -1.829  29.695  0.5399  0.1397  0.4868
   43mA      Am 5659   4.616  -1.992  29.371 -0.7258  0.0057  0.3447
   44mB      Bm 5660   4.463  -2.146  29.075 -0.8941 -1.0855 -1.1920
   45mC      Cm 5661   4.192  -2.285  28.853 -0.2633 -0.3427  0.8197
   46mC      Cm 5662   3.821  -2.269  28.678 -0.3027 -0.3073  0.0942
   47mR      Rm 5663   3.958  -2.524  28.850  1.0523  0.9000 -1.1985
   48mB      Bm 5664   3.494  -2.101  28.590  0.4847 -0.7034 -0.2036
   49mA      Am 5665   3.168  -1.930  28.630 -0.1376 -0.1551  0.3591
   50mB      Bm 5666   2.955  -1.797  28.900  0.0874  0.3811 -0.3838
   51mC      Cm 5667   2.801  -1.704  29.223  0.0134  0.4838  1.6110
   52mC      Cm 5668   2.838  -1.576  29.611  0.5023  1.7140  0.4098
   53mR      Rm 5669   2.664  -1.845  29.492 -0.7438 -0.8974 -0.5366
   54mB      Bm 5670   3.009  -1.459  29.915 -0.3244 -0.9118 -0.4737
   55mA      Am 5671   3.256  -1.457  30.183  0.3167  0.5807 -0.0617
   56mB      Bm 5672   3.533  -1.625  30.357 -1.0522 -0.0152  0.4601
   57mC      Cm 5673   3.790  -1.878  30.444 -0.5381 -0.2310 -0.0778
   58mC      Cm 5674   4.085  -2.141  30.338  0.8579 -1.0897  0.0322
   59mR      Rm 5675   3.839  -2.183  30.575  1.2069 -0.1028  2.1779
   60mB      Bm 5676   4.307  -2.328  30.104 -0.3599 -0.0816 -0.2405
   61mA      Am 5677   4.405  -2.551  29.813  0.9779  1.1426  0.3431
   62mB      Bm 5678   4.300  -2.743  29.520 -0.4291 -0.6836 -0.7787
   63mC      Cm 5679   4.105  -2.897  29.250  0.7172  0.0717 -0.5028
   64mC      Cm 5680   3.788  -2.880  28.994 -0.5224  0.3032  0.5716
   65mR      Rm 5681   3.877  -3.128  29.198  1.6909 -1.1313 -1.3108
   66mB      Bm 5682   3.479  -2.722  28.855 -0.8065 -0.8750 -1.3056
   67mA      Am 5683   3.159  -2.547  28.832 -0.2186  0.0584 -0.2310
   68mB      Bm 5684   2.869  -2.400  29.017 -0.9127 -0.0334 -0.0460
   69mC      Cm 5685   2.628  -2.303  29.279 -0.0331 -0.0965 -0.4280
   70mC      Cm 5686   2.530  -2.181  29.661  1.2720 -0.8756 -1.0654
   71mR      Rm 5687   2.382  -2.431  29.479  0.2883 -0.0489  0.9035
   72mB      Bm 5688   2.584  -2.041  30.009  0.0193  0.1359 -0.8580
   73mA      Am 5689   2.707  -2.014  30.354 -0.6673 -0.7822 -1.0015
   74mB      Bm 5690   2.889  -2.181  30.635 -0.5331  0.7996 -0.3327
   75mC      Cm 5691   3.064  -2.445  30.830  0.4181 -0.3518 -0.3393
   76mC      Cm 5692   3.340  -2.748  30.827 -0.6182 -0.9082  0.7761
   77mR      Rm 5693   3.026  -2.755  30.959 -0.0321  0.5292 -0.6791
   78mB      Bm 5694   3.605  -2.939  30.664  0.3426 -0.1707  0.6023
   79mA      Am 5695   3.799  -3.144  30.413  0.2060 -0.0362  0.0869
   80mB      Bm 5696   3.817  -3.332  30.091 -0.8248 -0.5306 -0.5549
   81mC      Cm 5697   3.746  -3.493  29.765 -0.1127 -0.8931 -0.2112
   82mC      Cm 5698   3.601  -3.483  29.388  1.0391  0.4155  0.2000
   83mR      Rm 5699   3.557  -3.734  29.609 -1.1728  1.3499 -0.7668
   84mB      Bm 5700   3.431  -3.348  29.084 -0.3203 -1.6836 -1.2664
   85mA      Am 5701   3.172  -3.210  28.864  0.5695 -0.0276  0.5287
   86mB      Bm 5702   2.823  -3.098  28.842 -0.0544  0.6532  0.1198
   87mC      Cm 5703   2.464  -3.026  28.935 -1.2559 -0.3711 -0.3742
   88mC      Cm 5704   2.150  -2.908  29.161 -0.3208 -1.0058 -0.3853
   89mR      Rm 5705   2.158  -3.172  28.965  0.0901 -0.3428  0.1425
   90mB      Bm 5706   1.986  -2.765  29.473 -0.7872 -0.0154 -0.4562
   91mA      Am 5707   1.911  -2.732  29.831  0.3336 -0.3092 -0.0032
   92mB      Bm 5708   1.978  -2.844  30.182  0.3080 -0.0650  0.4172
   93mC      Cm 5709   2.118  -3.023  30.473 -0.2168 -0.9660  0.1488
   94mC      Cm 5710   2.411  -3.232  30.677 -0.6204  0.9148 -0.6690
   95mR      Rm 5711   2.076  -3.298  30.668 -0.0670  1.2499 -1.4234
   96mB      Bm 5712   2.737  -3.384  30.705 -0.1656 -0.3110 -0.3633
   97mA      Am 5713   3.029  -3.593  30.635  1.0111 -0.1764  0.4966
   98mB      Bm 5714   3.167  -3.877  30.442 -0.4312  0.3015 -0.7986
   99mC      Cm 5715   3.202  -4.161  30.212 -0.0797 -0.6032  0.5977
  100mC      Cm 5716   3.207  -4.362  29.852  0.0441  0.4044 -0.7801
  101mR      Rm 5717   3.129  -4.490  30.154  0.5710 -0.3575  0.3571
  102mB      Bm 5718   3.096  -4.389  29.497  0.5217 -0.5493  0.7150
  103mA      Am 5719   2.873  -4.370  29.201  0.0393 -0.1881 -0.2127
  104mB      Bm 5720   2.543  -4.285  29.057 -0.3233  0.2834 -0.3905
  105mC      Cm 5721   2.194  -4.165  29.038 -0.0542  0.9299  0.1993
  106mC      Cm 5722   1.884  -3.906  29.116  1.0528  1.0773 -0.5162
  107mR      Rm 5723   1.882  -4.242  29.133  0.5712 -1.6562 -0.7620
  108tB      Bt 5724   1.655  -3.618  29.028 -0.4445  0.8919 -0.9632
    1hA      Ah 5725   0.154   0.246  26.900 -0.1815  0.3624 -0.2056
    2mB      Bm 5726   0.203   0.540  27.092 -0.9234 -0.4660  0.0678
    3mC      Cm 5727   0.274   0.778  27.372  0.4584  0.4841 -1.7329
    4mC      Cm 5728   0.469   0.890  27.716  1.3048  0.4827  0.0494
    5mR      Rm 5729   0.129   0.886  27.657 -1.6442 -0.3658  0.3481
    6mB      Bm 5730   0.702   0.857  27.999  0.0658  0.5614 -0.1733
    7mA      Am 5731   0.883   0.716  28.281 -0.1684 -0.2528  0.1381
    8mB      Bm 5732   0.943   0.447  28.518  0.6148  0.6778  0.5297
    9mC      Cm 5733   0.925   0.130  28.707 -1.3317 -1.0494 -1.2713
   10mC      Cm 5734   0.918  -0.273  28.791  0.4451  0.6409 -0.1918
   11mR      Rm 5735   0.703  -0.035  28.904  0.0011  0.0735 -0.7360
   12mB      Bm 5736   0.973  -0.625  28.713  0.0250  0.3850 -0.2559
   13mA      Am 5737   0.911  -0.943  28.519  0.8202  1.4219  0.4210
   14mB      Bm 5738   0.731  -1.126  28.264 -0.1713 -0.8589  0.0431
   15mC      Cm 5739   0.480  -1.189  27.986 -0.2726  0.0142 -0.8857
   16mC      Cm 5740   0.284  -1.145  27.637  0.9090 -0.5605 -1.1950
   17mR      Rm 5741   0.141  -1.204  27.944  0.0022  0.7509 -0.2961
   18mB      Bm 5742   0.245  -0.969  27.320 -0.4033  0.9210  1.0419
   19mA      Am 5743   0.183  -0.683  27.098 -0.1766 -0.5121  1.0706
   20mB      Bm 5744   0.133  -0.313  27.104 -0.4640 -0.4500 -0.8858
   21mC      Cm 5745   0.082   0.015  27.246  0.2374  0.1080  0.4816
   22mC      Cm 5746   0.134   0.286  27.540  0.3063 -0.0250 -0.0345
   23mR      Rm 5747  -0.157   0.220  27.388  0.6420 -1.7079  0.6944
   24mB      Bm 5748   0.264   0.426  27.853 -0.7719  0.3200  0.0630
   25mA      Am 5749   0.366   0.480  28.195  0.3735  0.0173 -1.0559
   26mB      Bm 5750   0.390   0.334  28.542 -0.1718  0.4037  0.7332
   27mC      Cm 5751   0.348   0.106  28.843 -0.1288 -1.4688  0.9513
   28mC      Cm 5752   0.346  -0.252  29.032  1.0213  0.4263 -0.4308
   29mR      Rm 5753   0.108  -0.021  29.061 -0.3187  0.6746  1.8005
   30mB      Bm 5754   0.377  -0.628  29.025  0.1134 -0.4500 -0.7695
   31mA      Am 5755   0.327  -0.980  28.903 -0.4087 -0.0738  0.4035
   32mB      Bm 5756   0.145  -1.210  28.674  0.6018 -0.3388  0.8578
   33mC      Cm 5757  -0.102  -1.348  28.427 -0.2097  0.5498 -0.4219
   34mC      Cm 5758  -0.293  -1.343  28.060 -0.6365  0.1138  0.3146
   35mR      Rm 5759  -0.429  -1.404  28.362 -0.4759 -0.3909 -1.7985
   36mB      Bm 5760  -0.360  -1.199  27.723  0.6582  0.4165  0.7578
   37mA      Am 5761  -0.422  -0.943  27.451  0.0307 -0.4518 -0.6386
   38mB      Bm 5762  -0.503  -0.596  27.376 -0.6059 -0.8042  0.9128
   39mC      Cm 5763  -0.570  -0.249  27.438 -0.3876 -0.5617  0.7168
   40mC      Cm 5764  -0.502   0.103  27.638  0.0637 -0.6553  0.1076
   41mR      Rm 5765  -0.800  -0.021  27.560 -0.0756  0.3722  1.0324
   42mB      Bm 5766  -0.334   0.306  27.895  0.7822  0.2428  0.4026
   43mA      Am 5767  -0.201   0.405  28.233 -0.6246 -0.3799  0.2436
   44mB      Bm 5768  -0.202   0.308  28.586  0.1614 -0.0313 -0.0620
   45mC      Cm 5769  -0.280   0.124  28.905 -0.5021  0.2160  0.8508
   46mC      Cm 5770  -0.299  -0.207  29.145  1.7431  0.2002  0.3501
   47mR      Rm 5771  -0.521   0.055  29.130 -0.7851  1.0139 -0.1851
   48mB      Bm 5772  -0.296  -0.571  29.226 -0.7147  0.2209 -0.2816
   49mA      Am 5773  -0.362  -0.940  29.191  1.0077 -0.8377 -0.0284
   50mB      Bm 5774  -0.523  -1.214  29.005  0.0007  0.0330  0.6547
   51mC      Cm 5775  -0.711  -1.397  28.746 -0.1385  0.4901  0.3054
   52mC      Cm 5776  -0.812  -1.473  28.357  0.5395 -0.0903 -0.1837
   53mR      Rm 5777  -1.009  -1.499  28.637 -0.4797  0.0993 -1.0592
   54mB      Bm 5778  -0.846  -1.387  28.002 -0.4530  0.6410 -0.1259
   55mA      Am 5779  -0.927  -1.173  27.712 -0.5104  0.1786 -0.0707
   56mB      Bm 5780  -1.037  -0.846  27.603  0.3224 -0.1181  0.6464
   57mC      Cm 5781  -1.170  -0.499  27.614  1.1433 -0.6185 -0.6807
   58mC      Cm 5782  -1.195  -0.124  27.774 -0.6295  0.0746  0.1922
   59mR      Rm 5783  -1.452  -0.328  27.697  0.0356  0.9703  1.0457
   60mB      Bm 5784  -1.098   0.137  28.008  1.5585  0.2598  0.5805
   61mA      Am 5785  -1.012   0.293  28.333 -0.2844 -0.3464  0.0199
   62mB      Bm 5786  -0.955   0.253  28.685  0.2244 -0.3303 -0.4385
   63mC      Cm 5787  -0.949   0.112  29.021  0.3520 -0.6005 -0.7738
   64mC      Cm 5788  -0.878  -0.165  29.312 -0.0724 -0.3217  0.2910
   65mR      Rm 5789  -1.148   0.047  29.292  0.1749  0.3531  1.0628
   66mB      Bm 5790  -0.768  -0.494  29.447  0.8989 -0.6015 -0.1648
   67mA      Am 5791  -0.758  -0.857  29.504  0.6113 -0.2460 -0.0565
   68mB      Bm 5792  -0.887  -1.196  29.433 -0.0361  0.7523 -0.5628
   69mC      Cm 5793  -1.130  -1.444  29.295 -0.7942 -1.3358 -0.1979
   70mC      Cm 5794  -1.372  -1.609  29.011  0.8816  0.0021  0.7585
   71mR      Rm 5795  -1.436  -1.581  29.340  0.0698  0.5249 -1.5995
   72mB      Bm 5796  -1.533  -1.617  28.685 -0.4180  0.9145  0.4582
   73mA      Am 5797  -1.703  -1.491  28.389 -0.2148 -1.3815 -1.3052
   74mB      Bm 5798  -1.853  -1.200  28.200 -0.4049  0.0018 -0.1695
   75mC      Cm 5799  -1.995  -0.862  28.143 -0.0724 -0.2395 -0.4460
   76mC      Cm 5800  -2.013  -0.459  28.206  0.0226  1.4609  0.2743
   77mR      Rm 5801  -2.268  -0.671  28.218  0.6506 -1.2817  0.3679
   78mB      Bm 5802  -1.877  -0.150  28.365  0.2360  0.2679 -0.5303
   79mA      Am 5803  -1.731   0.069  28.620  0.2119  0.0368 -0.4222
   80mB      Bm 5804  -1.648   0.127  28.979 -0.0893 -0.1565 -0.4325
   81mC      Cm 5805  -1.581   0.082  29.345  0.4573  0.7522 -0.0071
   82mC      Cm 5806  -1.448  -0.146  29.665  0.1066  0.2249  0.3799
   83mR      Rm 5807  -1.736   0.036  29.627 -0.5978  0.0008  1.1624
   84mB      Bm 5808  -1.331  -0.457  29.823  0.2569  0.6182  0.1797
   85mA      Am 5809  -1.303  -0.820  29.920 -0.8942  0.2767  0.1707
   86mB      Bm 5810  -1.441  -1.166  29.888  0.1029  0.3396  0.4689
   87mC      Cm 5811  -1.673  -1.432  29.787 -0.6158  0.4156  0.2077
   88mC      Cm 5812  -1.929  -1.647  29.544  1.1224  0.3535  0.6135
   89mR      Rm 5813  -1.976  -1.558  29.865  0.5119  1.5406 -0.6342
   90mB      Bm 5814  -2.090  -1.700  29.214  0.3750  0.5846  0.3937
   91mA      Am 5815  -2.277  -1.632  28.890 -0.5376  0.5562 -0.8246
   92mB      Bm 5816  -2.448  -1.364  28.676 -1.1471  0.4633 -0.1928
   93mC      Cm 5817  -2.576  -1.041  28.549  0.0360  0.5480 -0.4522
   94mC      Cm 5818  -2.572  -0.635  28.497  0.3435  0.1312 -0.4613
   95mR      Rm 5819  -2.833  -0.831  28.566  0.0841  0.0405 -0.4004
   96mB      Bm 5820  -2.470  -0.278  28.526  0.2537  0.3471 -0.1582
   97mA      Am 5821  -2.365   0.042  28.668 -0.1073  0.3630 -0.4288
   98mB      Bm 5822  -2.279   0.213  28.983  0.6003 -0.3319 -0.4655
   99mC      Cm 5823  -2.228   0.316  29.343 -0.5266 -0.4771  1.2327
  100mC      Cm 5824  -2.147   0.207  29.725  0.2729 -0.4739  1.0348
  101mR      Rm 5825  -2.380   0.430  29.622  0.6271  1.3110  0.3493
  102mB      Bm 5826  -2.073  -0.030  29.998 -0.3054  0.6309 -0.9124
  103mA      Am 5827  -2.066  -0.333  30.215 -0.1633  0.8783  0.3460
  104mB      Bm 5828  -2.210  -0.667  30.291 -0.1190  0.3450  0.3308
  105mC      Cm 5829  -2.417  -0.975  30.242  0.4182  1.2157 -0.4408
  106mC      Cm 5830  -2.559  -1.299  30.032 -1.0541 -0.7748 -0.5590
  107mR      Rm 5831  -2.732  -1.124  30.270  0.7501  0.0196 -0.8115
  108tB      Bt 5832  -2.552  -1.596  29.837  0.0312 -0.7338 -0.3987
    1hA      Ah 5833  10.749  12.181  30.128 -1.1581 -0.1688 -0.4865
    2mB      Bm 5834  10.667  12.277  30.480 -0.0490 -0.9543 -0.4134
    3mC      Cm 5835  10.646  12.460  30.785  0.9031  0.3518 -0.0174
    4mC      Cm 5836  10.557  12.781  31.027 -0.9001 -1.0213  1.0617
    5mR      Rm 5837  10.823  12.563  31.054 -1.8268  0.3520  0.8844
    6mB      Bm 5838  10.478  13.125  31.136 -0.7581 -0.0248 -0.9044
    7mA      Am 5839  10.485  13.498  31.164  0.0416  0.0765  1.1093
    8mB      Bm 5840  10.614  13.839  31.067  1.1504  1.0219  0.4491
    9mC      Cm 5841  10.809  14.099  30.886 -0.6000  0.0100  0.3665
   10mC      Cm 5842  10.966  14.290  30.552 -0.4684  1.2307  0.1189
   11mR      Rm 5843  11.131  14.206  30.844  1.5261  1.4820  0.1959
   12mB      Bm 5844  11.006  14.372  30.192  0.5285 -0.1544  0.7177
   13mA      Am 5845  11.061  14.341  29.820 -1.0169  0.0386  0.4118
   14mB      Bm 5846  11.156  14.098  29.554  1.2997 -0.0425 -0.0088
   15mC      Cm 5847  11.257  13.781  29.377 -0.1906 -0.2281 -0.8094
   16mC      Cm 5848  11.250  13.377  29.329  0.4478  0.6878  0.4312
   17mR      Rm 5849  11.515  13.582  29.335  1.0333  0.6547 -0.2757
   18mB      Bm 5850  11.123  13.028  29.400  0.6655  0.8048 -0.1423
   19mA      Am 5851  11.027  12.707  29.583 -0.9555  0.2165  0.1521
   20mB      Bm 5852  10.997  12.554  29.924  0.6770 -0.3667  0.3059
   21mC      Cm 5853  11.023  12.525  30.297 -0.8541  0.9730 -0.3755
   22mC      Cm 5854  11.041  12.702  30.659 -1.1424  0.4584 -0.2423
   23mR      Rm 5855  11.228  12.447  30.555 -0.2575 -1.0740 -0.0705
   24mB      Bm 5856  11.045  12.996  30.881 -0.6655 -0.5567 -0.3892
   25mA      Am 5857  11.107  13.332  31.044  0.0526  0.4634  0.7536
   26mB      Bm 5858  11.265  13.660  31.039 -0.1226 -0.9130  0.6285
   27mC      Cm 5859  11.480  13.933  30.913  0.0924  1.6100 -0.7318
   28mC      Cm 5860  11.632  14.153  30.608  0.0781  0.2218  1.2712
   29mR      Rm 5861  11.805  13.996  30.847  1.4260  0.1973  0.8317
   30mB      Bm 5862  11.634  14.253  30.252  0.4892 -0.1475  0.3308
   31mA      Am 5863  11.662  14.231  29.885  0.1221  0.1536  0.1878
   32mB      Bm 5864  11.752  14.021  29.599  0.1886 -0.7016 -0.5194
   33mC      Cm 5865  11.867  13.739  29.385  0.0631  0.5707  0.5377
   34mC      Cm 5866  11.887  13.344  29.271 -0.3608 -1.3788  0.1243
   35mR      Rm 5867  12.140  13.551  29.323  0.6519 -0.4005 -1.2440
   36mB      Bm 5868  11.779  12.994  29.263  0.6474  0.6761  0.1804
   37mA      Am 5869  11.674  12.668  29.408 -1.0906  0.4746  0.6754
   38mB      Bm 5870  11.642  12.495  29.741  0.1747  0.0480 -0.9584
   39mC      Cm 5871  11.656  12.427  30.109  0.6591  0.8608  0.3902
   40mC      Cm 5872  11.677  12.580  30.485  0.5085 -0.2740 -0.4911
   41mR      Rm 5873  11.888  12.353  30.354 -1.1667 -0.3097  0.6734
   42mB      Bm 5874  11.645  12.837  30.755 -0.3274  0.6969 -0.5385
   43mA      Am 5875  11.703  13.157  30.924  0.4858  0.0528  0.4642
   44mB      Bm 5876  11.867  13.484  30.901  0.1666 -1.5120 -0.5972
   45mC      Cm 5877  12.075  13.756  30.751 -0.0427 -0.1520 -0.4148
   46mC      Cm 5878  12.191  14.043  30.478  0.7035 -0.8789  0.0297
   47mR      Rm 5879  12.381  13.885  30.716  0.9440  0.2905  0.7506
   48mB      Bm 5880  12.200  14.207  30.146  0.5817 -0.3009 -0.1480
   49mA      Am 5881  12.251  14.250  29.780  0.1437 -0.0977  0.7116
   50mB      Bm 5882  12.310  14.111  29.449  0.4480  0.8009 -0.5338
   51mC      Cm 5883  12.378  13.871  29.167 -0.4296  1.0652 -0.1040
   52mC      Cm 5884  12.374  13.494  29.005  0.1733 -1.3543  0.7755
   53mR      Rm 5885  12.634  13.716  29.014  1.0000 -0.1897  0.2035
   54mB      Bm 5886  12.270  13.133  29.029  1.0128  0.0482  0.4367
   55mA      Am 5887  12.192  12.780  29.146 -1.0043 -0.5068 -0.4974
   56mB      Bm 5888  12.198  12.549  29.434  1.3546  0.4756 -0.4967
   57mC      Cm 5889  12.251  12.406  29.771 -0.4594  1.1818  0.5983
   58mC      Cm 5890  12.278  12.461  30.178  0.4101 -1.0649  1.0518
   59mR      Rm 5891  12.495  12.299  29.975  0.2624 -0.3918 -0.2670
   60mB      Bm 5892  12.269  12.657  30.490 -0.6366  0.4636 -1.0121
   61mA      Am 5893  12.307  12.938  30.712 -0.3322 -0.4550  0.6317
   62mB      Bm 5894  12.455  13.270  30.753 -0.3035  0.5698  0.5140
   63mC      Cm 5895  12.649  13.577  30.695  0.5801  0.0946 -0.1858
   64mC      Cm 5896  12.743  13.909  30.483 -0.1690 -0.3449  0.1956
   65mR      Rm 5897  12.944  13.727  30.668  0.3296  0.4612  0.0517
   66mB      Bm 5898  12.748  14.153  30.203  0.6008  0.0358 -0.2460
   67mA      Am 5899   0.414   1.917  29.853 -1.3777  0.8304  0.4684
   68mB      Bm 5900   0.506   1.807  29.525  0.9081  0.0981  0.0535
   69mC      Cm 5901   0.614   1.593  29.238 -0.2695 -0.7274 -0.4229
   70mC      Cm 5902   0.615   1.242  29.031 -0.3236  0.7699 -0.6694
   71mR      Rm 5903   0.880   1.435  29.092  0.0381  2.0682  1.1574
   72mB      Bm 5904   0.508   0.887  28.972 -0.6099 -0.0686 -1.1914
   73mA      Am 5905   0.439   0.527  29.040  0.8685 -0.7335 -0.0014
   74mB      Bm 5906   0.437   0.269  29.301  0.2074  0.2823  0.5830
   75mC      Cm 5907   0.485   0.074  29.606  0.1559  0.0156 -0.2356
   76mC      Cm 5908   0.487   0.028  30.012  0.1206 -0.7159 -1.1496
   77mR      Rm 5909   0.726  -0.065  29.791 -0.0021  1.7950  0.9205
   78mB      Bm 5910   0.444   0.145  30.370 -0.2158 -0.0293  0.6013
   79mA      Am 5911   0.464   0.350  30.673 -0.6797 -0.2070 -0.3209
   80mB      Bm 5912   0.622   0.653  30.817 -0.1019 -0.3601 -0.7463
   81mC      Cm 5913   0.812   0.960  30.902 -0.3562  0.2295  0.1366
   82mC      Cm 5914   1.006   1.290  30.757 -0.5226  0.9715 -0.3390
   83mR      Rm 5915   1.128   1.048  30.958  0.7968  0.3785  0.7129
   84mB      Bm 5916   1.103   1.546  30.505  1.9581 -0.6434  0.1595
   85mA      Am 5917   1.215   1.705  30.192 -0.3643 -1.0649 -0.2913
   86mB      Bm 5918   1.363   1.668  29.850  0.0572  0.3630 -0.4891
   87mC      Cm 5919   1.503   1.510  29.543 -0.1539 -0.0080  0.7670
   88mC      Cm 5920   1.516   1.216  29.255 -0.6444 -0.5865 -0.5461
   89mR      Rm 5921   1.784   1.380  29.379  0.7298  0.3839 -0.5901
   90mB      Bm 5922   1.408   0.905  29.089 -0.6582  0.0391  0.4882
   91mA      Am 5923   1.317   0.557  29.037  0.1772 -0.3303 -0.2168
   92mB      Bm 5924   1.267   0.225  29.197  0.2879  0.1117 -0.4070
   93mC      Cm 5925   1.252  -0.047  29.460 -0.0108 -1.0322  2.0103
   94mC      Cm 5926   1.158  -0.190  29.837 -0.1623  0.4606  0.9044
   95mR      Rm 5927   1.452  -0.225  29.669  0.2354 -0.3944  0.7818
   96mB      Bm 5928   1.030  -0.182  30.184  0.0507  0.4925  0.5631
   97mA      Am 5929   0.977  -0.072  30.525 -0.4015 -0.0133 -0.3265
   98mB      Bm 5930   1.068   0.193  30.759 -0.3801  0.2798  0.0733
   99mC      Cm 5931   1.249   0.491  30.876 -0.2335 -0.6175 -0.5724
  100mC      Cm 5932   1.427   0.858  30.824 -0.5494 -0.5423 -0.2283
  101mR      Rm 5933   1.550   0.588  30.991  0.3087 -0.0197  0.3743
  102mB      Bm 5934   1.516   1.176  30.645  0.1769  0.0808 -0.2520
  103mA      Am 5935   1.658   1.405  30.382  0.2505 -0.0235 -0.4469
  104mB      Bm 5936   1.836   1.425  30.055 -0.0868  0.0277 -0.1539
  105mC      Cm 5937   1.997   1.335  29.744 -0.6303 -0.1258  0.6945
  106mC      Cm 5938   2.051   1.139  29.388 -0.3588 -0.1054 -0.6471
  107mR      Rm 5939   2.278   1.188  29.629  0.5194  0.8476  0.4504
  108tB      Bt 5940   2.029   1.085  29.024 -0.4100 -0.7408 -0.2316
    1hA      Ah 5941   4.621   7.715  22.906 -0.4755 -0.4380 -0.2179
    2mB      Bm 5942   4.354   7.547  22.706  0.6182  0.6824  1.2926
    3mC      Cm 5943   4.119   7.464  22.424 -0.2550 -0.2584 -0.6239
    4mC      Cm 5944   4.006   7.353  22.049 -0.2897 -0.8297  0.7363
    5mR      Rm 5945   3.879   7.599  22.241 -0.0714  0.0361  0.0226
    6mB      Bm 5946   4.064   7.244  21.699  0.2179 -0.3934 -0.4407
    7mA      Am 5947   4.194   7.226  21.352 -0.7428 -0.0094  0.5495
    8mB      Bm 5948   4.410   7.399  21.117  0.3515 -0.5272  0.5531
    9mC      Cm 5949   4.645   7.650  20.969 -1.0292 -1.2472 -0.6220
   10mC      Cm 5950   4.981   7.879  20.969  0.3122  0.6618 -0.2158
   11mR      Rm 5951   4.666   7.963  20.850  1.3536 -0.2986 -0.1095
   12mB      Bm 5952   5.287   8.041  21.091  0.0206 -0.0636  0.2424
   13mA      Am 5953   5.522   8.224  21.324 -0.1127 -0.0985  0.4099
   14mB      Bm 5954   5.550   8.389  21.648 -0.2061  0.2073 -0.3273
   15mC      Cm 5955   5.447   8.534  21.968 -0.3961  0.1940 -0.3989
   16mC      Cm 5956   5.239   8.558  22.328 -0.7488 -0.4443 -0.2063
   17mR      Rm 5957   5.278   8.803  22.103 -0.0345  0.8551  0.1661
   18mB      Bm 5958   4.984   8.425  22.574 -0.5258 -0.0610 -0.1789
   19mA      Am 5959   4.686   8.285  22.719 -0.1537  0.7042 -0.1697
   20mB      Bm 5960   4.346   8.174  22.636 -0.1319 -0.5628 -0.2537
   21mC      Cm 5961   4.033   8.092  22.454  0.2813  0.0565  0.0924
   22mC      Cm 5962   3.872   7.969  22.104 -0.6320 -0.0196  0.9291
   23mR      Rm 5963   3.763   8.214  22.296 -0.7969 -0.3914 -0.5045
   24mB      Bm 5964   3.857   7.849  21.753  0.3692 -0.0210 -1.0828
   25mA      Am 5965   3.923   7.811  21.395  0.5063  0.3461  0.0176
   26mB      Bm 5966   4.113   7.960  21.106  0.9604  0.5224  0.4481
   27mC      Cm 5967   4.335   8.178  20.903 -1.3356  0.0663 -0.8387
   28mC      Cm 5968   4.676   8.408  20.829 -0.1119  0.3934 -0.2248
   29mR      Rm 5969   4.366   8.475  20.744  0.5577 -0.4531  0.0749
   30mB      Bm 5970   4.996   8.571  20.931 -0.4954  0.4225 -0.4322
   31mA      Am 5971   5.250   8.776  21.116 -0.0092 -0.3133  0.3172
   32mB      Bm 5972   5.329   8.975  21.418 -0.2765  0.2624 -0.5900
   33mC      Cm 5973   5.293   9.149  21.740  0.2065 -1.0461 -0.0827
   34mC      Cm 5974   5.124   9.181  22.121  0.2384 -0.4493  0.5518
   35mR      Rm 5975   5.142   9.413  21.880 -0.1558  0.2628 -0.0519
   36mB      Bm 5976   4.920   9.068  22.414  0.0611  0.8553 -0.2695
   37mA      Am 5977   4.637   8.920  22.601  0.4732 -0.0127  0.1958
   38mB      Bm 5978   4.293   8.793  22.553  0.4822 -0.4401 -0.1429
   39mC      Cm 5979   3.961   8.705  22.400  0.4174  0.6911  1.5486
   40mC      Cm 5980   3.725   8.569  22.092  0.0071 -0.3077 -0.9909
   41mR      Rm 5981   3.674   8.834  22.279  0.0492 -0.3650 -0.5549
   42mB      Bm 5982   3.651   8.422  21.768 -0.1683 -0.1664  0.4643
   43mA      Am 5983   3.676   8.374  21.402  0.2089  0.0568 -0.0398
   44mB      Bm 5984   3.829   8.494  21.089 -0.2076  0.3097 -0.4115
   45mC      Cm 5985   4.012   8.706  20.859 -0.6363  0.2296  0.9589
   46mC      Cm 5986   4.330   8.937  20.748 -0.5792  0.1424  0.4176
   47mR      Rm 5987   4.001   8.977  20.660 -0.8921 -0.1463 -1.2429
   48mB      Bm 5988   4.656   9.112  20.819  0.2166  0.2987  0.6854
   49mA      Am 5989   4.936   9.314  20.967  0.2158 -0.4404 -0.2456
   50mB      Bm 5990   5.070   9.532  21.232 -0.3971  0.1726 -0.2117
   51mC      Cm 5991   5.079   9.729  21.550  0.1462 -0.2777 -0.0544
   52mC      Cm 5992   5.037   9.778  21.949  0.2818  0.4507  0.1400
   53mR      Rm 5993   4.927   9.989  21.713 -0.3666 -0.1528 -0.0400
   54mB      Bm 5994   4.961   9.677  22.294  0.1119  0.3546  0.3683
   55mA      Am 5995   4.776   9.561  22.603  0.5722 -0.4449  0.3063
   56mB      Bm 5996   4.446   9.488  22.772  0.7276 -0.0648  0.4984
   57mC      Cm 5997   4.073   9.478  22.816 -0.7423 -0.1209 -0.5304
   58mC      Cm 5998   3.687   9.413  22.719  0.6269  1.3118  1.2865
   59mR      Rm 5999   3.808   9.679  22.885 -0.6130  0.7699 -0.1321
   60mB      Bm 6000   3.418   9.306  22.486  0.3348  0.4094 -0.0053
   61mA      Am 6001   3.213   9.294  22.187  0.2497 -0.4731  0.2545
   62mB      Bm 6002   3.157   9.420  21.846  0.0781 -0.1149  0.3838
   63mC      Cm 6003   3.202   9.598  21.529 -0.8074  0.0532  0.6304
   64mC      Cm 6004   3.422   9.745  21.220 -0.0116 -0.2010 -0.2130
   65mR      Rm 6005   3.167   9.898  21.382  2.0290 -0.9582 -0.8358
   66mB      Bm 6006   3.737   9.824  21.035  0.1113  0.0143 -0.2897
   67mA      Am 6007   4.086   9.942  20.973  0.1206 -0.3937  0.3609
   68mB      Bm 6008   4.363  10.112  21.150  0.5980  0.3912 -0.1697
   69mC      Cm 6009   4.567  10.273  21.423 -0.0111 -0.3534 -0.5204
   70mC      Cm 6010   4.739  10.303  21.791  0.4927  0.6484  0.4344
   71mR      Rm 6011   4.623  10.561  21.595  0.2075  0.4266  0.4873
   72mB      Bm 6012   4.799  10.214  22.157 -0.0541 -0.2639 -0.2638
   73mA      Am 6013   4.692  10.125  22.499  0.5059 -0.0987  0.4640
   74mB      Bm 6014   4.412  10.085  22.723 -0.4032  0.4275 -0.4277
   75mC      Cm 6015   4.063  10.095  22.846 -0.3571  0.0073 -0.7413
   76mC      Cm 6016   3.656  10.023  22.837  0.2605 -0.2200 -0.4266
   77mR      Rm 6017   3.814  10.305  22.958 -0.3787  0.8587  1.2979
   78mB      Bm 6018   3.347   9.907  22.663  0.5621  0.9653 -0.3610
   79mA      Am 6019   3.091   9.852  22.403  0.2974 -0.0149 -0.1387
   80mB      Bm 6020   2.984   9.958  22.068  0.2769 -0.3219 -0.3088
   81mC      Cm 6021   2.982  10.135  21.741  0.5766 -0.3978  0.3395
   82mC      Cm 6022   3.160  10.267  21.395  0.4570 -0.0905 -0.4249
   83mR      Rm 6023   2.948  10.434  21.598 -0.4730  0.0496  0.6685
   84mB      Bm 6024   3.452  10.338  21.179  0.5573  0.6799 -0.0623
   85mA      Am 6025   3.786  10.444  21.051 -0.0625  0.1324  0.1845
   86mB      Bm 6026   4.099  10.624  21.133  0.0023 -0.3137  0.3252
   87mC      Cm 6027   4.327  10.826  21.348  0.4645  0.0634  0.5076
   88mC      Cm 6028   4.503  10.894  21.707  0.0375 -0.5373 -0.2203
   89mR      Rm 6029   4.384  11.129  21.496 -0.2384 -1.0311 -0.3389
   90mB      Bm 6030   4.616  10.815  22.050  0.2796  0.5407 -0.5066
   91mA      Am 6031   4.576  10.753  22.420  0.5186  0.0205 -0.3448
   92mB      Bm 6032   4.352  10.733  22.716 -0.7093  0.0738  0.6623
   93mC      Cm 6033   4.046  10.747  22.936 -0.8718 -0.7485 -0.8401
   94mC      Cm 6034   3.658  10.654  23.012  0.8729 -1.0509  0.4024
   95mR      Rm 6035   3.814  10.953  23.065 -0.1412  0.7324  0.4901
   96mB      Bm 6036   3.327  10.497  22.946 -1.0054 -0.3202  0.1306
   97mA      Am 6037   3.012  10.411  22.786  0.1814 -0.5504 -0.1137
   98mB      Bm 6038   2.781  10.466  22.510  0.8628  0.3268  0.4692
   99mC      Cm 6039   2.641  10.621  22.204  0.3226  0.3512  0.5083
  100mC      Cm 6040   2.626  10.755  21.816 -0.4655  0.1173 -0.5179
  101mR      Rm 6041   2.484  10.892  22.092 -0.0017  0.2652  2.3913
  102mB      Bm 6042   2.780  10.863  21.501  0.6703  0.0493  0.2112
  103mA      Am 6043   2.993  11.028  21.245 -0.1307 -0.0037  0.0324
  104mB      Bm 6044   3.275  11.255  21.154  0.6953 -0.1470  0.2413
  105mC      Cm 6045   3.572  11.482  21.162  0.6350  0.2335  0.3447
  106mC      Cm 6046   3.953  11.584  21.280 -1.4207 -0.0923  0.4373
  107mR      Rm 6047   3.675  11.789  21.267  0.7166  0.6201 -0.6361
  108tB      Bt 6048   4.319  11.597  21.243  0.7901 -0.2710  0.1997
    1hA      Ah 6049   8.906   0.314  12.523  0.2749 -0.3414  0.1794
    2mB      Bm 6050   8.891   0.241  12.883  0.4135  0.2196  0.1774
    3mC      Cm 6051   8.967   0.124  13.216  0.0994 -0.3983 -0.8867
    4mC      Cm 6052   9.210   0.117  13.543 -0.9032  0.4748 -0.0057
    5mR      Rm 6053   9.033  -0.134  13.415  0.3610  0.5819  0.3398
    6mB      Bm 6054   9.504   0.197  13.767 -0.2376 -0.1590 -0.5310
    7mA      Am 6055   9.848   0.235  13.893 -0.8210 -0.2112  0.6749
    8mB      Bm 6056  10.209   0.189  13.835 -0.2256  0.8186  0.2524
    9mC      Cm 6057  10.516   0.096  13.649 -0.0779  0.7163 -0.9628
   10mC      Cm 6058  10.780   0.105  13.328  0.2738  0.0237  0.1785
   11mR      Rm 6059  10.684  -0.162  13.510 -0.2102  0.6899 -0.4094
   12mB      Bm 6060  10.885   0.217  12.991 -0.2646 -0.0212  0.4120
   13mA      Am 6061  10.885   0.285  12.626  0.2763  0.5777  0.0848
   14mB      Bm 6062  10.701   0.234  12.308  0.5105  0.2743  0.5286
   15mC      Cm 6063  10.434   0.123  12.070 -0.2914 -0.4942 -0.1705
   16mC      Cm 6064  10.048   0.057  11.946 -0.1111 -0.0149  0.4851
   17mR      Rm 6065  10.314  -0.148  11.913 -0.2512 -0.6381 -0.0323
   18mB      Bm 6066   9.673   0.042  11.999  1.0482  0.1708 -1.1289
   19mA      Am 6067   9.347  -0.020  12.164 -0.7392 -0.2637  0.5687
   20mB      Bm 6068   9.178  -0.150  12.462 -0.1054 -0.3412 -0.1426
   21mC      Cm 6069   9.120  -0.305  12.790  0.7060  0.5871  0.1868
   22mC      Cm 6070   9.216  -0.406  13.180 -0.1519  0.8527  0.8815
   23mR      Rm 6071   9.111  -0.606  12.930 -0.1712  0.4346 -0.1994
   24mB      Bm 6072   9.436  -0.390  13.475 -1.0885 -0.7189  0.1490
   25mA      Am 6073   9.743  -0.391  13.691 -0.1542 -0.2648 -0.0036
   26mB      Bm 6074  10.106  -0.429  13.702  0.4897  0.2086 -0.0718
   27mC      Cm 6075  10.466  -0.497  13.590  0.3501 -0.0443  0.1363
   28mC      Cm 6076  10.784  -0.463  13.335 -0.7298 -0.6688  0.5293
   29mR      Rm 6077  10.678  -0.733  13.506  0.1514  1.0313 -0.2529
   30mB      Bm 6078  10.933  -0.342  13.018  0.1321  0.4012 -0.1150
   31mA      Am 6079  10.974  -0.296  12.652 -0.3072  0.2729  0.0218
   32mB      Bm 6080  10.844  -0.357  12.319  0.0064  0.0596  0.2941
   33mC      Cm 6081  10.641  -0.465  12.026 -0.4795 -1.4756 -0.1448
   34mC      Cm 6082  10.273  -0.509  11.865  1.0612  0.1181  0.2122
   35mR      Rm 6083  10.523  -0.731  11.864  0.3211  0.3946  0.1097
   36mB      Bm 6084   9.895  -0.507  11.863  0.3335  0.3218  0.2386
   37mA      Am 6085   9.545  -0.560  11.964 -0.0801 -0.8986 -0.0960
   38mB      Bm 6086   9.309  -0.702  12.207  0.1737 -0.0238 -1.6322
   39mC      Cm 6087   9.191  -0.896  12.509 -0.2560 -0.6685  0.4411
   40mC      Cm 6088   9.216  -0.999  12.905  0.1708  0.1567  0.7690
   41mR      Rm 6089   9.148  -1.205  12.644 -1.0862 -1.0294  1.4529
   42mB      Bm 6090   9.374  -0.971  13.240 -0.3449 -0.0155  0.1452
   43mA      Am 6091   9.658  -0.958  13.478  0.5790 -0.2681  0.0616
   44mB      Bm 6092  10.013  -0.997  13.529  0.2933  1.0498  0.5402
   45mC      Cm 6093  10.371  -1.051  13.477  0.2045 -0.9545 -0.1451
   46mC      Cm 6094  10.720  -1.014  13.273 -0.8241  0.2964 -0.7640
   47mR      Rm 6095  10.601  -1.297  13.423 -1.0157 -0.6907  0.8731
   48mB      Bm 6096  10.907  -0.927  12.978 -0.2296  0.1745 -0.5370
   49mA      Am 6097  11.033  -0.877  12.640  0.2019 -0.2204 -0.1162
   50mB      Bm 6098  10.951  -0.917  12.292  0.1362  0.8384  0.8452
   51mC      Cm 6099  10.760  -1.037  11.990 -0.7001 -0.6963  0.5193
   52mC      Cm 6100  10.415  -1.100  11.782  0.8395 -0.1758 -0.7143
   53mR      Rm 6101  10.666  -1.320  11.819 -0.2183  0.2468 -0.7416
   54mB      Bm 6102  10.052  -1.085  11.730  0.6541 -0.4020 -0.1646
   55mA      Am 6103   9.691  -1.132  11.801  0.2244  0.1981  0.5442
   56mB      Bm 6104   9.451  -1.267  12.043  0.1008  0.0203 -0.0457
   57mC      Cm 6105   9.323  -1.450  12.342 -0.4184 -1.0572  0.4555
   58mC      Cm 6106   9.308  -1.564  12.738  0.2687 -0.0521  0.6938
   59mR      Rm 6107   9.315  -1.759  12.465 -0.1486  0.1045 -0.6017
   60mB      Bm 6108   9.421  -1.546  13.095  0.2166  0.5326  0.1047
   61mA      Am 6109   9.634  -1.534  13.392 -0.3694 -0.0922 -0.3239
   62mB      Bm 6110   9.985  -1.582  13.511  0.6022  0.1872 -0.2277
   63mC      Cm 6111  10.349  -1.651  13.481 -0.2741  0.0488 -0.2603
   64mC      Cm 6112  10.726  -1.635  13.316 -0.5090 -0.7415  0.0514
   65mR      Rm 6113  10.572  -1.899  13.466  0.0874 -0.4191  0.3871
   66mB      Bm 6114  10.980  -1.539  13.047 -0.4561 -0.3075 -0.7656
   67mA      Am 6115  11.119  -1.511  12.712 -0.4646  0.2316 -0.2888
   68mB      Bm 6116  11.080  -1.560  12.355  1.1428  0.1256  0.5494
   69mC      Cm 6117  10.938  -1.665  12.034 -0.2054  0.9178  0.4054
   70mC      Cm 6118  10.650  -1.724  11.749  0.3642 -0.6061  0.3845
   71mR      Rm 6119  10.897  -1.939  11.832 -0.8697  0.3202 -1.4035
   72mB      Bm 6120  10.288  -1.703  11.652  0.2638  0.8324 -0.5060
   73mA      Am 6121   9.928  -1.754  11.676  0.6476  0.0427 -0.5416
   74mB      Bm 6122   9.644  -1.876  11.884 -0.9034 -0.6623  0.3271
   75mC      Cm 6123   9.451  -2.037  12.165  1.4691 -0.1427  0.3499
   76mC      Cm 6124   9.354  -2.130  12.555  0.4796  0.1313 -0.7977
   77mR      Rm 6125   9.372  -2.346  12.296  0.2979  1.1093  0.4095
   78mB      Bm 6126   9.404  -2.098  12.919 -0.7898 -0.1650  0.6426
   79mA      Am 6127   9.582  -2.123  13.246 -0.3111 -0.0335 -0.7226
   80mB      Bm 6128   9.904  -2.189  13.427 -0.7291  0.2052 -0.4512
   81mC      Cm 6129  10.260  -2.278  13.491  0.2460  0.3780  0.4664
   82mC      Cm 6130  10.650  -2.262  13.379  0.1692 -0.5504 -0.0771
   83mR      Rm 6131  10.476  -2.538  13.454 -0.5904 -0.3101 -0.7527
   84mB      Bm 6132  10.918  -2.150  13.153 -0.2969 -0.2078  0.0677
   85mA      Am 6133  11.106  -2.078  12.847  0.1515  0.6266  0.6758
   86mB      Bm 6134  11.132  -2.112  12.481 -0.1263 -0.4919 -0.1568
   87mC      Cm 6135  11.039  -2.230  12.142 -0.0291 -0.5937  0.0434
   88mC      Cm 6136  10.786  -2.304  11.840  0.0839  0.1565  0.2804
   89mR      Rm 6137  11.051  -2.493  11.929  0.1269  1.1358  0.5728
   90mB      Bm 6138  10.452  -2.299  11.678  0.0811 -0.3251  0.8066
   91mA      Am 6139  10.086  -2.346  11.625 -0.0664  0.0938 -0.3519
   92mB      Bm 6140   9.774  -2.476  11.778  0.1918 -0.1791 -0.1565
   93mC      Cm 6141   9.556  -2.642  12.022  0.6597  0.2333 -1.0425
   94mC      Cm 6142   9.413  -2.727  12.399 -0.5783  0.0617  1.6199
   95mR      Rm 6143   9.457  -2.941  12.134 -0.9268 -1.0211 -0.6700
   96mB      Bm 6144   9.437  -2.702  12.760  0.3233  0.0325 -0.9085
   97mA      Am 6145   9.574  -2.720  13.103 -0.1811 -0.0839  0.3048
   98mB      Bm 6146   9.889  -2.762  13.284 -0.1188 -0.1187 -0.7592
   99mC      Cm 6147  10.242  -2.845  13.342  0.4054 -0.5319 -0.1577
  100mC      Cm 6148  10.638  -2.836  13.247  0.1219 -0.0567  0.0375
  101mR      Rm 6149  10.458  -3.097  13.359  0.2393  0.0475  0.2480
  102mB      Bm 6150  10.926  -2.743  13.034 -0.2634 -0.0074  0.3037
  103mA      Am 6151  11.133  -2.700  12.737  0.0350 -0.1346 -0.3575
  104mB      Bm 6152  11.227  -2.730  12.384  0.2583 -1.1362  0.1465
  105mC      Cm 6153  11.231  -2.822  12.025  0.1524  0.9068  0.6652
  106mC      Cm 6154  11.062  -2.842  11.653 -0.0382 -0.3237  0.7957
  107mR      Rm 6155  11.264  -3.070  11.805 -0.9287  0.1126 -0.3733
  108tB      Bt 6156  10.775  -2.821  11.423 -0.1087  0.1696 -1.1005
    1hA      Ah 6157   1.601   5.215  15.917  0.3817 -0.2029  0.2487
    2mB      Bm 6158   1.431   5.444  16.155  0.3336 -0.4350 -0.1514
    3mC      Cm 6159   1.267   5.593  16.458  0.0205 -0.3380 -0.0520
    4mC      Cm 6160   1.206   5.620  16.859  1.1735  0.0021 -0.0664
    5mR      Rm 6161   0.974   5.581  16.619 -0.5221 -0.3188  1.9614
    6mB      Bm 6162   1.278   5.579  17.218 -0.3799  0.2972 -0.7379
    7mA      Am 6163   1.349   5.426  17.550 -0.1250 -0.3002  0.0741
    8mB      Bm 6164   1.432   5.113  17.733 -0.8583  0.0212  0.3138
    9mC      Cm 6165   1.496   4.767  17.821 -0.2935 -0.4800  0.3871
   10mC      Cm 6166   1.655   4.394  17.764  0.4116  0.4949  0.4189
   11mR      Rm 6167   1.340   4.467  17.857 -0.7234  0.6465 -0.1182
   12mB      Bm 6168   1.859   4.146  17.566  0.2446  0.4631 -0.4375
   13mA      Am 6169   2.004   3.940  17.294  0.4047 -0.3768 -0.2210
   14mB      Bm 6170   1.991   3.858  16.941 -1.5517  0.0188 -0.4149
   15mC      Cm 6171   1.893   3.852  16.588  0.0484  1.1116  0.0524
   16mC      Cm 6172   1.794   4.048  16.244 -0.5190  1.0249  0.3870
   17mR      Rm 6173   1.649   3.780  16.375  2.2116  0.7564 -0.2675
   18mB      Bm 6174   1.691   4.349  16.062  0.3852 -0.2773  0.7748
   19mA      Am 6175   1.518   4.664  15.980 -0.4474 -0.1713 -0.0982
   20mB      Bm 6176   1.274   4.918  16.081  0.2559 -0.4452 -0.1220
   21mC      Cm 6177   1.013   5.074  16.290  0.2245  0.4027  0.3986
   22mC      Cm 6178   0.843   5.208  16.642  0.1189  0.0411 -0.6770
   23mR      Rm 6179   0.685   5.049  16.393 -0.7117  0.1685 -0.7759
   24mB      Bm 6180   0.842   5.240  17.006 -0.4452  0.2086  0.9493
   25mA      Am 6181   0.862   5.151  17.359  0.1010  0.0403 -0.7451
   26mB      Bm 6182   0.914   4.872  17.593  0.1060 -0.8599  0.6875
   27mC      Cm 6183   0.971   4.529  17.724 -0.6809 -0.2104  0.3963
   28mC      Cm 6184   1.126   4.149  17.723  0.2431  0.9317  0.7407
   29mR      Rm 6185   0.799   4.240  17.767 -0.2316  0.0025 -1.1076
   30mB      Bm 6186   1.339   3.865  17.582 -0.3111 -0.5945 -0.0569
   31mA      Am 6187   1.505   3.616  17.350  0.5278  0.2159  0.1258
   32mB      Bm 6188   1.515   3.498  16.997  0.4673 -0.1340  0.4384
   33mC      Cm 6189   1.422   3.451  16.641  0.1151 -0.9611 -0.1951
   34mC      Cm 6190   1.316   3.605  16.280 -0.0444  0.4727 -0.3438
   35mR      Rm 6191   1.178   3.328  16.441 -0.2929  0.8006 -0.1378
   36mB      Bm 6192   1.244   3.886  16.050 -0.6064  1.0300 -0.5371
   37mA      Am 6193   1.094   4.195  15.907 -0.1893 -0.5444  0.2143
   38mB      Bm 6194   0.840   4.468  15.954  0.0792 -0.1825 -0.1388
   39mC      Cm 6195   0.588   4.662  16.124  0.4584 -0.8881 -0.1088
   40mC      Cm 6196   0.404   4.837  16.446  0.0895  0.5213  0.7253
   41mR      Rm 6197   0.257   4.654  16.195  0.3302 -0.5050 -0.1481
   42mB      Bm 6198   0.385   4.908  16.801  0.1818  0.0566  0.0276
   43mA      Am 6199   0.376   4.861  17.162 -0.0464 -0.5187 -0.5754
   44mB      Bm 6200   0.379   4.631  17.441  0.6428  0.5638 -0.9087
   45mC      Cm 6201   0.398   4.313  17.631 -0.2342 -1.4537 -0.6264
   46mC      Cm 6202   0.552   3.940  17.696  0.2928 -0.5043 -0.0612
   47mR      Rm 6203   0.233   4.034  17.704  0.3649 -0.4678 -0.1536
   48mB      Bm 6204   0.778   3.653  17.622 -0.4230  0.8597 -0.1351
   49mA      Am 6205   0.964   3.384  17.438  0.7765  0.2971  0.0922
   50mB      Bm 6206   0.995   3.233  17.112 -1.0376 -0.0253 -0.9731
   51mC      Cm 6207   0.922   3.154  16.758 -0.4911  0.8795  0.4666
   52mC      Cm 6208   0.823   3.228  16.367  0.2327 -0.4412 -0.0399
   53mR      Rm 6209   0.705   2.975  16.564  0.1906  0.3182  0.8094
   54mB      Bm 6210   0.762   3.458  16.076 -0.3284 -0.2644  0.4537
   55mA      Am 6211   0.617   3.752  15.885  0.2211  0.5621 -0.1106
   56mB      Bm 6212   0.381   4.046  15.901 -0.4995 -0.6093  0.5199
   57mC      Cm 6213   0.130   4.283  16.025  0.5006  0.8347 -0.7292
   58mC      Cm 6214  -0.054   4.485  16.328  0.6113 -0.9975 -0.0713
   59mR      Rm 6215  -0.201   4.313  16.084  0.8539  0.3918  0.2456
   60mB      Bm 6216  -0.115   4.598  16.676 -0.0269 -0.6195 -0.0237
   61mA      Am 6217  -0.152   4.589  17.038  0.1557 -0.8700 -0.4681
   62mB      Bm 6218  -0.147   4.377  17.343  0.1243  0.4192  0.7376
   63mC      Cm 6219  -0.131   4.070  17.564  0.4467 -0.6418 -0.6717
   64mC      Cm 6220   0.011   3.712  17.710 -0.9213  0.4647 -0.3822
   65mR      Rm 6221  -0.310   3.815  17.693  1.0098 -0.2916 -0.9846
   66mB      Bm 6222   0.228   3.419  17.664  0.4361  0.6647 -0.5029
   67mA      Am 6223   0.389   3.141  17.473  0.0582 -0.3583 -0.7478
   68mB      Bm 6224   0.443   2.953  17.162  0.1565 -0.3349 -0.6087
   69mC      Cm 6225   0.411   2.842  16.815 -1.1177 -0.3804  0.5606
   70mC      Cm 6226   0.360   2.909  16.412  0.2662  0.6118 -0.3771
   71mR      Rm 6227   0.206   2.680  16.599  0.7578  0.1311  1.1150
   72mB      Bm 6228   0.331   3.140  16.120 -0.0010 -0.4604 -0.1481
   73mA      Am 6229   0.195   3.403  15.904  0.0126 -0.7585  0.0507
   74mB      Bm 6230  -0.032   3.684  15.875 -0.7023  0.4186  0.4786
   75mC      Cm 6231  -0.289   3.923  15.971  0.0241 -0.2908 -0.1591
   76mC      Cm 6232  -0.505   4.150  16.237  0.0555 -0.6361  0.1598
   77mR      Rm 6233  -0.622   3.949  15.992  0.1673  1.0013  0.7407
   78mB      Bm 6234  -0.574   4.302  16.570 -0.8981 -0.5543  0.2811
   79mA      Am 6235  -0.641   4.343  16.933  0.4590 -0.3719 -0.6768
   80mB      Bm 6236  -0.676   4.157  17.255  0.1864 -0.0250  0.6207
   81mC      Cm 6237  -0.688   3.878  17.496  0.0318 -0.3909  1.1093
   82mC      Cm 6238  -0.543   3.531  17.650 -0.4887  0.6741 -0.5068
   83mR      Rm 6239  -0.867   3.610  17.585 -0.5816 -0.1186 -0.0264
   84mB      Bm 6240  -0.318   3.234  17.673  0.3775 -0.0418  0.4036
   85mA      Am 6241  -0.137   2.927  17.564 -0.2172 -0.1944  0.9188
   86mB      Bm 6242  -0.082   2.695  17.279  0.0968  0.5277 -0.3984
   87mC      Cm 6243  -0.108   2.536  16.948 -0.3993 -1.0112 -0.8299
   88mC      Cm 6244  -0.115   2.570  16.542  0.6834 -0.0755 -1.3313
   89mR      Rm 6245  -0.306   2.364  16.741 -1.0302  0.5659  1.6401
   90mB      Bm 6246  -0.119   2.737  16.211  0.5207  0.3323  0.2778
   91mA      Am 6247  -0.226   2.962  15.938 -0.2100  0.0749 -0.1529
   92mB      Bm 6248  -0.466   3.217  15.842  0.1391  0.4730 -0.4383
   93mC      Cm 6249  -0.747   3.461  15.871 -0.1801 -1.1113 -0.1652
   94mC      Cm 6250  -0.969   3.750  16.064 -0.1114  0.5564  0.1408
   95mR      Rm 6251  -1.082   3.495  15.881 -0.8980  0.5766  0.5468
   96mB      Bm 6252  -1.057   3.952  16.356  0.6484 -0.5397  0.1578
   97mA      Am 6253  -1.128   4.015  16.724 -1.0183  0.3741 -1.0973
   98mB      Bm 6254  -1.189   3.890  17.071 -0.0458  0.1112  0.1616
   99mC      Cm 6255  -1.225   3.660  17.366  0.8605  0.0557  0.3005
  100mC      Cm 6256  -1.122   3.333  17.585 -1.1309 -0.1908 -0.5301
  101mR      Rm 6257  -1.432   3.429  17.498 -0.4179  0.2094 -0.7368
  102mB      Bm 6258  -0.905   3.031  17.626  0.2628 -0.3859  0.5562
  103mA      Am 6259  -0.724   2.718  17.582  0.4261  0.5178  0.1356
  104mB      Bm 6260  -0.641   2.470  17.323 -0.8217  0.3765  1.0193
  105mC      Cm 6261  -0.629   2.268  17.007  0.0178 -0.3262  0.3400
  106mC      Cm 6262  -0.602   2.218  16.599  0.3420 -0.1707  1.1106
  107mR      Rm 6263  -0.796   2.045  16.820 -0.2887 -0.4629  0.7317
  108tB      Bt 6264  -0.575   2.311  16.237 -0.1131 -0.1199 -1.0068
    1hA      Ah 6265   7.560   8.930  25.892 -0.0610 -0.2196 -0.4763
    2mB      Bm 6266   7.418   8.590  25.885 -0.7760 -0.0147 -0.0456
    3mC      Cm 6267   7.335   8.238  25.773 -0.5168  0.9636 -0.6649
    4mC      Cm 6268   7.405   7.840  25.650  0.4933 -0.6491 -0.1399
    5mR      Rm 6269   7.180   8.048  25.540  0.9479  0.6553  1.7412
    6mB      Bm 6270   7.613   7.555  25.546 -0.2766 -0.0235 -0.2914
    7mA      Am 6271   7.876   7.365  25.375  0.0707  0.1121 -0.0220
    8mB      Bm 6272   8.148   7.351  25.115 -0.8537 -0.4673 -0.1481
    9mC      Cm 6273   8.389   7.430  24.854 -0.5170  0.5290  0.7689
   10mC      Cm 6274   8.714   7.572  24.669  0.3634  0.0823  0.2457
   11mR      Rm 6275   8.403   7.536  24.535  1.0078 -0.3432  1.5049
   12mB      Bm 6276   9.025   7.768  24.669  0.0109 -0.1480  0.3221
   13mA      Am 6277   9.259   8.053  24.711 -0.5945  0.1262 -0.0707
   14mB      Bm 6278   9.316   8.395  24.835  0.0216 -1.0039 -0.6282
   15mC      Cm 6279   9.265   8.730  24.957 -0.0705  0.1078 -0.4683
   16mC      Cm 6280   9.091   9.015  25.196  0.6670 -0.4801 -0.3275
   17mR      Rm 6281   9.148   9.026  24.855  0.1774  0.6310 -0.5755
   18mB      Bm 6282   8.861   9.135  25.452  1.0423 -0.1145  0.2613
   19mA      Am 6283   8.537   9.196  25.654 -0.5024  0.2164  0.0794
   20mB      Bm 6284   8.172   9.134  25.689 -0.8535  0.4402 -0.0925
   21mC      Cm 6285   7.844   8.999  25.607 -0.6610 -0.4494 -0.2708
   22mC      Cm 6286   7.573   8.723  25.471 -0.1237 -0.1856  0.8991
   23mR      Rm 6287   7.582   9.054  25.396 -1.6295  0.2257 -0.7196
   24mB      Bm 6288   7.500   8.388  25.324  0.2043 -0.6818 -1.6172
   25mA      Am 6289   7.501   8.095  25.105  0.0475  0.8280  1.2190
   26mB      Bm 6290   7.639   7.923  24.809 -0.5033  0.5910 -0.2460
   27mC      Cm 6291   7.857   7.865  24.536 -0.6773 -0.8219  0.6852
   28mC      Cm 6292   8.214   7.866  24.327  0.1280  0.6906 -0.7248
   29mR      Rm 6293   7.899   7.940  24.212 -0.8020  0.7352 -1.4204
   30mB      Bm 6294   8.570   7.980  24.301  0.9161 -0.7788  0.4419
   31mA      Am 6295   8.874   8.196  24.281  0.4901 -0.1975  0.3835
   32mB      Bm 6296   8.990   8.544  24.339  0.5259  0.2040  0.2738
   33mC      Cm 6297   8.984   8.900  24.425  0.0234 -0.3687  0.0378
   34mC      Cm 6298   8.874   9.231  24.642  0.3071  0.0254 -0.6524
   35mR      Rm 6299   8.883   9.187  24.300 -1.2671  0.8332  0.6886
   36mB      Bm 6300   8.699   9.410  24.916 -0.3456  0.2745  0.7540
   37mA      Am 6301   8.429   9.532  25.129 -0.1303 -0.4346 -0.1867
   38mB      Bm 6302   8.066   9.528  25.196 -0.2659  0.6532 -0.7540
   39mC      Cm 6303   7.699   9.451  25.185 -0.3288 -0.2859  0.4889
   40mC      Cm 6304   7.382   9.205  25.135 -0.0658  0.3181  0.2537
   41mR      Rm 6305   7.417   9.520  25.015 -0.6139 -0.2511  1.6654
   42mB      Bm 6306   7.248   8.883  25.051 -0.4101  0.3164 -0.6057
   43mA      Am 6307   7.195   8.548  24.873  0.0033 -0.6988  0.1450
   44mB      Bm 6308   7.297   8.367  24.567 -0.2606  0.4259 -0.3685
   45mC      Cm 6309   7.476   8.293  24.237  0.1659 -0.7960  0.0117
   46mC      Cm 6310   7.804   8.271  23.995  0.3403 -0.5200 -0.0014
   47mR      Rm 6311   7.492   8.377  23.911 -1.2194  0.6688  0.3006
   48mB      Bm 6312   8.156   8.323  23.910 -0.3111 -0.4590 -0.8440
   49mA      Am 6313   8.484   8.499  23.868  0.3698  0.1646 -0.3899
   50mB      Bm 6314   8.649   8.827  23.918  0.7416  0.0392  0.1152
   51mC      Cm 6315   8.719   9.188  23.995  0.7942 -0.9225  0.9432
   52mC      Cm 6316   8.640   9.531  24.204  0.5365 -0.6262  0.9563
   53mR      Rm 6317   8.665   9.497  23.869  0.6122 -0.3613 -1.2832
   54mB      Bm 6318   8.481   9.709  24.476  0.2856  0.5347 -0.1605
   55mA      Am 6319   8.216   9.842  24.695  0.2138 -0.4530 -0.4196
   56mB      Bm 6320   7.849   9.864  24.739 -0.6044 -0.2405 -0.3854
   57mC      Cm 6321   7.489   9.843  24.703 -0.0139 -0.5804 -0.0798
   58mC      Cm 6322   7.140   9.641  24.623  0.6802 -0.2725 -1.1657
   59mR      Rm 6323   7.223   9.962  24.541 -0.1800  0.9452 -0.1974
   60mB      Bm 6324   6.951   9.344  24.499  0.2122 -0.1624 -0.0393
   61mA      Am 6325   6.871   9.052  24.295  0.0662 -0.4002  0.3651
   62mB      Bm 6326   6.949   8.828  24.006 -0.0279  0.9653  0.3208
   63mC      Cm 6327   7.130   8.695  23.701  1.0334 -1.0780 -0.6815
   64mC      Cm 6328   7.466   8.589  23.482 -1.3890  0.9566  0.1145
   65mR      Rm 6329   7.180   8.733  23.370  0.5354  0.0252  0.4417
   66mB      Bm 6330   7.835   8.577  23.427  0.5067 -0.1494  0.0316
   67mA      Am 6331   8.186   8.701  23.391 -0.5497 -0.6044  0.0143
   68mB      Bm 6332   8.415   9.008  23.408  1.3075  0.4092 -0.4948
   69mC      Cm 6333   8.488   9.360  23.440  0.2383 -0.3435  1.1030
   70mC      Cm 6334   8.503   9.728  23.596 -0.3059 -0.5489 -0.4600
   71mR      Rm 6335   8.513   9.659  23.274 -0.5174  1.0397  0.7631
   72mB      Bm 6336   8.398   9.984  23.850 -0.0311 -0.2397 -0.0304
   73mA      Am 6337   8.160  10.183  24.060  0.1954  0.1397 -0.3412
   74mB      Bm 6338   7.816  10.271  24.164  0.8180 -0.0088 -0.0036
   75mC      Cm 6339   7.442  10.283  24.190  0.3489 -0.5853 -0.0676
   76mC      Cm 6340   7.064  10.117  24.151  0.2042 -0.2367  0.3182
   77mR      Rm 6341   7.179  10.412  24.008  1.0443 -0.0495  0.8466
   78mB      Bm 6342   6.824   9.844  24.088  0.1233  0.7155  0.1994
   79mA      Am 6343   6.680   9.552  23.915 -0.6199  0.0886  0.0893
   80mB      Bm 6344   6.697   9.309  23.631 -0.2485 -0.1943 -0.3332
   81mC      Cm 6345   6.829   9.146  23.323  0.5739  0.1813  0.6302
   82mC      Cm 6346   7.117   8.999  23.072 -0.6975 -0.1553 -0.7400
   83mR      Rm 6347   6.837   9.162  22.983  0.7013  0.2340  0.8845
   84mB      Bm 6348   7.486   8.959  22.984 -0.5894 -0.3584 -0.1552
   85mA      Am 6349   7.844   9.025  22.929  0.4991  0.3072 -0.8773
   86mB      Bm 6350   8.110   9.287  22.927  0.4540 -0.8215  0.2836
   87mC      Cm 6351   8.277   9.621  22.950 -0.3710  0.6218  0.6860
   88mC      Cm 6352   8.337   9.983  23.134 -0.0003  0.4407  0.3107
   89mR      Rm 6353   8.322   9.918  22.803  0.0656 -0.1875  0.6704
   90mB      Bm 6354   8.282  10.255  23.372 -0.1801  0.3810 -0.3264
   91mA      Am 6355   8.096  10.507  23.579 -0.3407  0.0981 -0.0592
   92mB      Bm 6356   7.777  10.648  23.688  0.2291 -0.0905  0.7776
   93mC      Cm 6357   7.415  10.720  23.697  0.0497 -0.5188 -0.7348
   94mC      Cm 6358   7.022  10.604  23.705  0.2191  0.0239 -0.2457
   95mR      Rm 6359   7.153  10.867  23.540 -0.4149 -0.4960 -0.3904
   96mB      Bm 6360   6.756  10.351  23.676  0.0789 -0.5164  0.1077
   97mA      Am 6361   6.558  10.082  23.536 -0.2283  0.7766 -0.2450
   98mB      Bm 6362   6.529   9.829  23.261 -0.0068 -0.4867 -0.1182
   99mC      Cm 6363   6.602   9.633  22.949  0.2142  0.3016  0.0338
  100mC      Cm 6364   6.856   9.435  22.704 -0.6106  0.5822 -0.9199
  101mR      Rm 6365   6.616   9.649  22.613  0.0328 -1.3035 -1.5243
  102mB      Bm 6366   7.185   9.310  22.580 -0.3215  0.5345  0.6772
  103mA      Am 6367   7.532   9.282  22.477 -0.3913 -0.4693  0.5434
  104mB      Bm 6368   7.844   9.498  22.413  0.0371 -0.0769  0.1318
  105mC      Cm 6369   8.038   9.809  22.391 -0.4125  1.2694 -0.4097
  106mC      Cm 6370   8.161  10.173  22.528 -0.3189  0.0200  0.1896
  107mR      Rm 6371   8.041  10.101  22.216  0.5876  1.4310 -0.8027
  108tB      Bt 6372   8.176  10.420  22.801  0.5262  0.0743 -0.1303
    1hA      Ah 6373   7.349   1.595  17.116 -0.6029  0.1010 -0.0015
    2mB      Bm 6374   7.699   1.503  17.048  0.1999  0.4407  0.1943
    3mC      Cm 6375   8.009   1.311  16.992  0.2316  0.0693  0.3483
    4mC      Cm 6376   8.231   1.031  16.792 -0.7311  1.1391 -0.2195
    5mR      Rm 6377   8.202   1.073  17.127 -0.7624  0.2496 -0.8170
    6mB      Bm 6378   8.308   0.786  16.531  0.1434  0.5521  1.1779
    7mA      Am 6379   8.261   0.492  16.297  0.0788  0.0071 -0.3784
    8mB      Bm 6380   8.058   0.206  16.189  0.1310  0.0099 -0.6639
    9mC      Cm 6381   7.789  -0.050  16.172 -0.0308 -0.7313  0.1666
   10mC      Cm 6382   7.398  -0.171  16.172 -0.2703  0.0786 -0.3064
   11mR      Rm 6383   7.657  -0.311  16.337 -0.6772 -0.5386  0.3987
   12mB      Bm 6384   7.031  -0.124  16.176  0.2788  0.5888  0.1298
   13mA      Am 6385   6.707  -0.000  16.288 -0.0808 -0.1402 -0.1259
   14mB      Bm 6386   6.492   0.191  16.524 -0.2226 -0.8807 -0.2629
   15mC      Cm 6387   6.406   0.378  16.825  0.1411  1.1337  0.9446
   16mC      Cm 6388   6.475   0.654  17.118 -0.1197 -0.0191 -1.0211
   17mR      Rm 6389   6.369   0.333  17.159 -0.0434 -0.0006 -0.0396
   18mB      Bm 6390   6.668   0.942  17.284 -0.4345  0.1031  0.4217
   19mA      Am 6391   6.963   1.128  17.415  0.3137 -0.1339 -0.0610
   20mB      Bm 6392   7.338   1.126  17.463  0.5869 -0.8723  0.1192
   21mC      Cm 6393   7.695   1.026  17.476 -0.4849 -0.2606 -0.2392
   22mC      Cm 6394   8.000   0.794  17.348  0.0667  0.2255  0.1909
   23mR      Rm 6395   7.908   0.837  17.675  0.8499 -0.2927 -1.3987
   24mB      Bm 6396   8.178   0.569  17.120 -0.5645  0.4283 -0.6625
   25mA      Am 6397   8.249   0.273  16.909 -0.1591 -0.2811  0.6037
   26mB      Bm 6398   8.090  -0.036  16.792 -0.0769 -0.7519 -0.2433
   27mC      Cm 6399   7.862  -0.329  16.724  1.0650  0.1688  0.3711
   28mC      Cm 6400   7.512  -0.525  16.651 -0.1065 -0.8781  0.3021
   29mR      Rm 6401   7.747  -0.614  16.882 -0.5322 -0.8377 -0.2253
   30mB      Bm 6402   7.141  -0.534  16.605  0.2580  0.0588 -0.2863
   31mA      Am 6403   6.792  -0.471  16.690 -0.0151 -0.3950  0.6108
   32mB      Bm 6404   6.547  -0.314  16.921 -0.1323  0.2208 -1.1330
   33mC      Cm 6405   6.429  -0.130  17.224  0.6955  0.7255  0.2605
   34mC      Cm 6406   6.452   0.168  17.498 -0.7861 -0.9578 -0.0989
   35mR      Rm 6407   6.368  -0.147  17.557  0.5371  0.3661 -1.2760
   36mB      Bm 6408   6.607   0.467  17.640 -0.3616  0.0893  0.5478
   37mA      Am 6409   6.864   0.705  17.786 -0.0551 -0.3857 -0.5405
   38mB      Bm 6410   7.217   0.769  17.889  1.0625 -0.4966  0.3133
   39mC      Cm 6411   7.575   0.705  17.943 -0.3500  0.1760 -0.7146
   40mC      Cm 6412   7.932   0.532  17.849 -0.8860  0.1689  0.4492
   41mR      Rm 6413   7.773   0.523  18.144 -0.5514 -0.4321 -0.4537
   42mB      Bm 6414   8.149   0.333  17.639 -0.6912  0.0255  0.5218
   43mA      Am 6415   8.293   0.061  17.435  0.1944  0.6957  0.0490
   44mB      Bm 6416   8.231  -0.277  17.316 -0.2484  0.3574 -1.3318
   45mC      Cm 6417   8.042  -0.604  17.264 -0.2311 -0.5257  1.3191
   46mC      Cm 6418   7.694  -0.805  17.204  1.4796 -1.3450  0.0046
   47mR      Rm 6419   7.940  -0.883  17.433  0.9681  0.3603  0.5704
   48mB      Bm 6420   7.326  -0.843  17.133 -0.6583  0.1606 -0.3164
   49mA      Am 6421   6.956  -0.828  17.174 -0.0928 -0.0545  0.6055
   50mB      Bm 6422   6.697  -0.699  17.404 -0.1591  0.4366 -0.2289
   51mC      Cm 6423   6.534  -0.519  17.687 -0.3433  0.2376  1.1947
   52mC      Cm 6424   6.516  -0.194  17.946 -0.4963 -0.0429 -1.0988
   53mR      Rm 6425   6.504  -0.529  18.018  0.5037  0.5543 -1.8644
   54mB      Bm 6426   6.630   0.121  18.110  0.3339  0.8843  1.0390
   55mA      Am 6427   6.829   0.387  18.269 -0.0181 -0.3632 -0.2383
   56mB      Bm 6428   7.164   0.468  18.391  0.7098  1.3619  0.1218
   57mC      Cm 6429   7.524   0.420  18.471 -0.1909 -0.1363  0.2811
   58mC      Cm 6430   7.908   0.295  18.399  0.1496 -0.2511 -0.5370
   59mR      Rm 6431   7.730   0.245  18.678 -1.6981  0.3090  0.7201
   60mB      Bm 6432   8.161   0.114  18.187 -0.1057 -0.1628 -0.0480
   61mA      Am 6433   8.322  -0.151  17.986 -0.9104 -0.0751  0.1679
   62mB      Bm 6434   8.293  -0.503  17.869  0.6269 -1.1370 -0.8106
   63mC      Cm 6435   8.146  -0.836  17.807 -0.4052  0.5960  0.9429
   64mC      Cm 6436   7.843  -1.091  17.713 -0.7053  0.4286 -0.2988
   65mR      Rm 6437   8.060  -1.117  17.971 -0.0223  0.3167 -0.4681
   66mB      Bm 6438   7.491  -1.176  17.621 -0.6645  0.9968  0.6699
   67mA      Am 6439   7.120  -1.175  17.638  0.3736 -0.3388 -0.0215
   68mB      Bm 6440   6.833  -1.051  17.844  0.3950  0.5795 -0.3330
   69mC      Cm 6441   6.648  -0.899  18.128  0.2020 -0.4345 -0.6369
   70mC      Cm 6442   6.586  -0.598  18.398  0.1965  1.1140  1.3454
   71mR      Rm 6443   6.594  -0.926  18.457 -1.0097 -0.4521  0.7361
   72mB      Bm 6444   6.670  -0.274  18.566  0.0793  0.0986  0.2223
   73mA      Am 6445   6.874  -0.017  18.751 -0.1098 -0.4555 -0.4470
   74mB      Bm 6446   7.206   0.070  18.882 -0.5755  0.3400 -0.2955
   75mC      Cm 6447   7.561   0.060  18.978 -0.6694 -0.6440 -0.9035
   76mC      Cm 6448   7.952  -0.046  18.906  0.1856 -0.2529  0.6897
   77mR      Rm 6449   7.782  -0.072  19.198 -0.3907 -0.1213  0.2285
   78mB      Bm 6450   8.223  -0.223  18.719  0.2078 -0.0461 -0.5616
   79mA      Am 6451   8.369  -0.496  18.512  0.5829 -0.0669 -0.0133
   80mB      Bm 6452   8.344  -0.842  18.369 -0.1522  0.7308 -0.0830
   81mC      Cm 6453   8.237  -1.185  18.293  0.5312  0.6992  0.1211
   82mC      Cm 6454   7.942  -1.457  18.231 -0.0675 -0.5314 -0.2769
   83mR      Rm 6455   8.217  -1.489  18.427  1.6313  0.5578  0.6051
   84mB      Bm 6456   7.594  -1.579  18.178 -0.2009  0.4300 -0.2573
   85mA      Am 6457   7.229  -1.636  18.197 -0.1534  0.0972 -0.2383
   86mB      Bm 6458   6.936  -1.513  18.385  0.4821  0.0191 -0.1723
   87mC      Cm 6459   6.719  -1.334  18.630  0.2135 -0.3925  0.3109
   88mC      Cm 6460   6.626  -1.017  18.881  1.1137  0.6402  0.7243
   89mR      Rm 6461   6.607  -1.345  18.949 -1.4099 -0.1430  0.8149
   90mB      Bm 6462   6.692  -0.699  19.040  0.4801 -0.3878 -0.0945
   91mA      Am 6463   6.883  -0.421  19.207 -1.3245  0.2639 -0.1053
   92mB      Bm 6464   7.191  -0.288  19.352 -1.0851 -0.3347 -0.3167
   93mC      Cm 6465   7.539  -0.258  19.479  0.4021  0.3475 -0.3113
   94mC      Cm 6466   7.942  -0.333  19.416  1.0246  0.1295  0.5042
   95mR      Rm 6467   7.765  -0.367  19.712  1.0825  1.0113 -0.2650
   96mB      Bm 6468   8.232  -0.470  19.238 -0.2570 -0.3471  0.6750
   97mA      Am 6469   8.468  -0.701  19.063  0.2986  0.3758 -0.2147
   98mB      Bm 6470   8.493  -1.047  18.935  0.3395  0.3371 -1.0029
   99mC      Cm 6471   8.420  -1.401  18.871  0.2662  1.1477  0.3381
  100mC      Cm 6472   8.165  -1.699  18.754  0.4482  0.0752 -1.0470
  101mR      Rm 6473   8.372  -1.695  19.014  0.0316  0.6178 -0.3352
  102mB      Bm 6474   7.837  -1.814  18.647 -0.0016 -0.2504  0.1512
  103mA      Am 6475   7.480  -1.872  18.637 -1.1138  0.3902 -0.1674
  104mB      Bm 6476   7.155  -1.803  18.825 -0.2181  0.2021  0.1020
  105mC      Cm 6477   6.909  -1.663  19.076 -0.3852 -0.0164 -0.5281
  106mC      Cm 6478   6.731  -1.381  19.308  1.0303 -0.0097 -0.0154
  107mR      Rm 6479   6.821  -1.693  19.400  0.2912 -0.1248  1.6255
  108tB      Bt 6480   6.678  -1.052  19.468  0.3837  0.2065 -0.8433
    1hA      Ah 6481   8.727   5.630  29.962 -0.5424 -0.3681  0.3255
    2mB      Bm 6482   8.350   5.637  29.984 -0.3669 -0.4500 -0.0763
    3mC      Cm 6483   7.998   5.745  30.069  0.7461  0.0538  0.6688
    4mC      Cm 6484   7.683   6.005  30.066 -0.2157 -1.0263  0.2582
    5mR      Rm 6485   7.783   5.798  30.312  0.1464 -0.2225 -0.4162
    6mB      Bm 6486   7.509   6.322  29.997  0.2736 -0.1199  0.1403
    7mA      Am 6487   7.421   6.676  29.971  0.0345  0.9550  0.7257
    8mB      Bm 6488   7.498   7.021  29.987 -0.6801  0.3647 -0.3990
    9mC      Cm 6489   7.675   7.349  30.043 -1.0491  0.1557 -0.1207
   10mC      Cm 6490   7.952   7.638  30.007  0.0173  0.7455 -0.0935
   11mR      Rm 6491   7.771   7.568  30.288 -0.0145 -0.4563  0.8994
   12mB      Bm 6492   8.281   7.781  29.914  0.3747  1.0474 -0.7459
   13mA      Am 6493   8.637   7.829  29.872 -0.8694 -0.2836 -0.1961
   14mB      Bm 6494   9.004   7.730  29.909  0.9642  0.1692 -0.2415
   15mC      Cm 6495   9.299   7.533  30.000  0.0513  0.7491  0.2821
   16mC      Cm 6496   9.515   7.191  30.041 -0.2407  0.7542 -1.1706
   17mR      Rm 6497   9.495   7.451  30.261  0.0993 -1.0390 -0.9445
   18mB      Bm 6498   9.564   6.820  30.028  0.2055  1.0719  1.0090
   19mA      Am 6499   9.495   6.460  30.042  0.3501  0.0385 -0.6477
   20mB      Bm 6500   9.245   6.199  30.149  0.0248 -0.3164  0.1177
   21mC      Cm 6501   8.945   6.051  30.322  0.9366  0.1798 -0.0989
   22mC      Cm 6502   8.549   6.019  30.410 -0.9856 -0.2021  1.3302
   23mR      Rm 6503   8.814   5.984  30.623  0.2727  0.0018  0.7050
   24mB      Bm 6504   8.198   6.130  30.377 -0.2362  0.2568  0.3070
   25mA      Am 6505   7.890   6.351  30.377 -0.8753  0.1467 -0.0127
   26mB      Bm 6506   7.735   6.678  30.450  0.6636  0.5380 -0.0396
   27mC      Cm 6507   7.693   7.022  30.562  0.2216 -0.3419  0.8868
   28mC      Cm 6508   7.838   7.398  30.655 -1.6667 -0.2087  0.1590
   29mR      Rm 6509   7.623   7.213  30.843  1.1273  0.9300  0.1846
   30mB      Bm 6510   8.072   7.681  30.659 -0.5626 -0.1472 -0.5732
   31mA      Am 6511   8.384   7.859  30.704  0.3212  0.1622 -0.1633
   32mB      Bm 6512   8.714   7.826  30.859  0.1537  0.0805 -0.3785
   33mC      Cm 6513   9.019   7.703  31.027  0.7848 -0.6327  0.4045
   34mC      Cm 6514   9.250   7.372  31.089 -0.2975 -0.8183 -0.3861
   35mR      Rm 6515   9.144   7.580  31.322  0.7086  0.7108  0.2814
   36mB      Bm 6516   9.353   7.028  31.018 -0.0610 -0.4314 -0.7156
   37mA      Am 6517   9.330   6.664  30.975  0.2558  0.0163  0.6810
   38mB      Bm 6518   9.095   6.373  30.998  0.3169  1.0246 -0.6297
   39mC      Cm 6519   8.786   6.162  31.068  0.8359 -0.7118  0.4120
   40mC      Cm 6520   8.381   6.099  31.046 -0.5106  0.0597  0.5501
   41mR      Rm 6521   8.585   6.032  31.306  1.3013 -0.1351  0.2136
   42mB      Bm 6522   8.034   6.207  30.945  0.4285 -1.0506 -0.9531
   43mA      Am 6523   7.732   6.417  30.896 -0.7434  0.0802 -0.1350
   44mB      Bm 6524   7.550   6.730  30.978  0.3051 -0.8403  1.4105
   45mC      Cm 6525   7.468   7.051  31.134  0.1041 -0.3437  0.2255
   46mC      Cm 6526   7.571   7.418  31.267  0.9205 -0.2649  0.6741
   47mR      Rm 6527   7.370   7.192  31.432 -0.3730  0.4444  0.3656
   48mB      Bm 6528   7.828   7.675  31.322 -0.5658  0.1134 -0.5834
   49mA      Am 6529   8.149   7.826  31.455  0.4547 -0.0137 -0.1247
   50mB      Bm 6530   8.446   7.770  31.651  0.3122 -0.0922 -0.1958
   51mC      Cm 6531   8.700   7.602  31.861  0.6356  0.5101 -1.0909
   52mC      Cm 6532   8.974   7.314  31.940 -0.2787  0.4799  0.8386
   53mR      Rm 6533   8.792   7.498  32.160  0.2967 -1.1623 -0.0004
   54mB      Bm 6534   9.107   6.968  31.896  0.3173  0.5934  0.0014
   55mA      Am 6535   9.110   6.594  31.879  0.3080  0.5806 -0.4759
   56mB      Bm 6536   8.898   6.288  31.867  0.9586  0.0898 -0.0532
   57mC      Cm 6537   8.591   6.080  31.845 -0.8485 -0.3044  0.1096
   58mC      Cm 6538   8.197   6.023  31.741 -0.1430  0.2454 -0.8196
   59mR      Rm 6539   8.342   5.995  32.047 -0.0578 -1.0243 -0.7689
   60mB      Bm 6540   7.875   6.110  31.582 -0.2318 -0.3485 -0.8601
   61mA      Am 6541   7.570   6.291  31.484 -0.5445  0.3672 -0.5625
   62mB      Bm 6542   7.366   6.607  31.547 -0.0274  0.8336 -0.2509
   63mC      Cm 6543   7.235   6.937  31.678  1.3428 -0.3778 -0.7733
   64mC      Cm 6544   7.295   7.330  31.789  0.4678  0.6261  0.3265
   65mR      Rm 6545   7.111   7.100  31.947  1.0033  0.0429  1.8598
   66mB      Bm 6546   7.501   7.627  31.864 -0.8962 -0.5033  0.3627
   67mA      Am 6547   7.772   7.841  32.014  0.6882 -0.3255  0.5098
   68mB      Bm 6548   8.064   7.872  32.240  0.2119 -0.6987  0.2262
   69mC      Cm 6549   8.309   7.776  32.500  0.9626  0.2569 -0.4965
   70mC      Cm 6550   8.578   7.539  32.680 -0.3020  0.0941 -0.8337
   71mR      Rm 6551   8.335   7.714  32.835 -0.6968  0.0138  0.1262
   72mB      Bm 6552   8.784   7.216  32.712 -0.1708 -0.1335 -0.1346
   73mA      Am 6553   8.888   6.863  32.706 -0.5006 -0.1722  0.1159
   74mB      Bm 6554   8.757   6.518  32.664  1.2075  0.3505 -0.1637
   75mC      Cm 6555   8.502   6.263  32.624  0.3980 -2.1474 -0.3900
   76mC      Cm 6556   8.147   6.121  32.471  0.2673  0.2018  0.7143
   77mR      Rm 6557   8.273   6.073  32.778 -1.4667  0.6811  0.6139
   78mB      Bm 6558   7.829   6.145  32.291 -0.4702 -0.5020  0.3610
   79mA      Am 6559   7.514   6.291  32.155 -0.0842 -0.1325 -0.6272
   80mB      Bm 6560   7.292   6.578  32.170  0.5732  0.6468  0.1888
   81mC      Cm 6561   7.177   6.913  32.286 -0.0492  0.6826  0.2485
   82mC      Cm 6562   7.185   7.308  32.377 -0.0232 -0.1264  0.4666
   83mR      Rm 6563   7.033   7.074  32.557  0.1261  0.2626 -1.3637
   84mB      Bm 6564   7.349   7.634  32.412 -0.3986 -1.2317 -0.2325
   85mA      Am 6565   7.590   7.895  32.543  0.6063  0.3546 -0.2299
   86mB      Bm 6566   7.871   7.979  32.786  0.1941 -0.5259  1.0001
   87mC      Cm 6567   8.124   7.935  33.054 -0.2289  0.4852 -0.8795
   88mC      Cm 6568   8.436   7.739  33.233  0.9233 -0.0934  0.2499
   89mR      Rm 6569   8.181   7.892  33.387  0.0899  0.0032 -0.6624
   90mB      Bm 6570   8.669   7.452  33.271  0.2344  1.3229  0.2910
   91mA      Am 6571   8.803   7.109  33.310  1.1727 -0.4190  0.0920
   92mB      Bm 6572   8.704   6.754  33.380 -1.4843 -0.2007 -0.5358
   93mC      Cm 6573   8.475   6.460  33.444 -0.3617 -0.8224  0.1454
   94mC      Cm 6574   8.146   6.216  33.378  0.8062 -0.4722  0.7567
   95mR      Rm 6575   8.270   6.326  33.671  0.4325  0.8408 -0.0548
   96mB      Bm 6576   7.841   6.139  33.195 -1.2693  0.4820 -0.6147
   97mA      Am 6577   7.509   6.185  33.043  0.6309 -1.0206  0.0102
   98mB      Bm 6578   7.232   6.418  32.980  1.0951 -1.3616  0.5351
   99mC      Cm 6579   7.025   6.733  32.984 -1.6662 -0.2198 -0.2290
  100mC      Cm 6580   6.963   7.138  32.968 -0.1041  0.6810  1.2658
  101mR      Rm 6581   6.802   6.915  33.162  1.7017 -0.0795  1.0274
  102mB      Bm 6582   7.088   7.482  32.944  0.0408  0.3519 -0.9164
  103mA      Am 6583   7.299   7.779  33.021  0.9264 -0.7447 -0.1482
  104mB      Bm 6584   7.579   7.863  33.245  0.2398  0.8036 -0.5505
  105mC      Cm 6585   7.827   7.819  33.524  0.6663 -1.4461  1.4975
  106mC      Cm 6586   8.087   7.607  33.759  0.6283  0.8104  0.0290
  107mR      Rm 6587   7.820   7.792  33.863 -1.1389  1.3660  0.8616
  108tB      Bt 6588   8.331   7.342  33.871  0.3210 -1.2445  0.0198
    1hA      Ah 6589   3.538   3.490  26.966 -0.2401 -0.3361 -0.3511
    2mB      Bm 6590   3.892   3.539  27.036 -0.0802  0.9575  0.4561
    3mC      Cm 6591   4.234   3.485  27.165  0.1913 -0.3983 -0.5382
    4mC      Cm 6592   4.587   3.267  27.189  0.5701 -0.0590  0.3930
    5mR      Rm 6593   4.428   3.437  27.444 -0.7661  0.4356  0.1396
    6mB      Bm 6594   4.818   2.996  27.121  1.0256  0.3073 -0.7668
    7mA      Am 6595   4.936   2.648  27.114  0.0388 -0.6018  0.5742
    8mB      Bm 6596   4.886   2.286  27.191 -0.5454 -0.6418 -0.5764
    9mC      Cm 6597   4.749   1.963  27.325  0.9635  0.4118 -0.1455
   10mC      Cm 6598   4.445   1.720  27.455 -0.2253 -0.2174 -0.3530
   11mR      Rm 6599   4.734   1.789  27.610  1.2367  0.0788 -0.6763
   12mB      Bm 6600   4.085   1.630  27.479 -0.5788  0.3541  0.1195
   13mA      Am 6601   3.722   1.696  27.527  0.3869 -0.6215  0.3573
   14mB      Bm 6602   3.441   1.936  27.614 -0.2502 -0.0938 -0.2562
   15mC      Cm 6603   3.244   2.229  27.717 -0.4150  0.2572 -0.7397
   16mC      Cm 6604   3.163   2.627  27.716  0.5567 -1.3318  0.3549
   17mR      Rm 6605   3.145   2.419  27.979  1.0647 -0.0376 -0.3868
   18mB      Bm 6606   3.246   2.974  27.611 -0.5244  1.2847  0.5168
   19mA      Am 6607   3.450   3.279  27.572 -0.1364  0.3372 -0.4690
   20mB      Bm 6608   3.785   3.427  27.637  0.0993 -0.0868  0.3971
   21mC      Cm 6609   4.130   3.461  27.755  0.9502  0.1905  0.1847
   22mC      Cm 6610   4.516   3.343  27.813 -1.4079  0.8050  1.2598
   23mR      Rm 6611   4.309   3.511  28.026  0.3345 -0.4582  0.3445
   24mB      Bm 6612   4.789   3.087  27.779  0.1597  0.5996 -0.0627
   25mA      Am 6613   4.969   2.771  27.767  0.0369  0.8449  0.2426
   26mB      Bm 6614   4.975   2.405  27.826  0.3764 -1.2596  0.6279
   27mC      Cm 6615   4.893   2.061  27.934 -0.8527  0.4240  0.3938
   28mC      Cm 6616   4.636   1.747  28.005  0.4605 -0.4151 -0.6379
   29mR      Rm 6617   4.883   1.872  28.214 -0.6652  0.8227  0.7619
   30mB      Bm 6618   4.295   1.603  28.011 -0.1833 -0.5508  0.1899
   31mA      Am 6619   3.939   1.585  28.063  0.9190  0.1172  0.0641
   32mB      Bm 6620   3.628   1.760  28.180 -0.5939 -0.3913  1.0077
   33mC      Cm 6621   3.425   2.041  28.310 -1.0414  0.8975 -0.5232
   34mC      Cm 6622   3.291   2.425  28.333  0.3058 -0.0508  0.5953
   35mR      Rm 6623   3.356   2.215  28.587  0.2340 -0.0002 -0.7795
   36mB      Bm 6624   3.279   2.776  28.250  0.1457  0.3327  0.4011
   37mA      Am 6625   3.385   3.113  28.201  0.2100 -0.9754 -0.3912
   38mB      Bm 6626   3.684   3.328  28.251 -1.0058 -0.5429  0.7578
   39mC      Cm 6627   4.019   3.449  28.342  0.6544 -0.5135 -0.0184
   40mC      Cm 6628   4.418   3.393  28.359 -0.6824  0.3697  1.0565
   41mR      Rm 6629   4.221   3.511  28.611  0.4257 -0.1906 -1.1535
   42mB      Bm 6630   4.729   3.200  28.307  0.7434 -0.2047  0.2316
   43mA      Am 6631   4.982   2.919  28.318 -0.2868 -0.1004 -0.6890
   44mB      Bm 6632   5.046   2.573  28.447 -0.3612  1.2139  0.8089
   45mC      Cm 6633   5.006   2.251  28.602  0.7161  1.2113 -1.0529
   46mC      Cm 6634   4.772   1.928  28.691 -0.7595 -0.5627  0.7289
   47mR      Rm 6635   4.984   2.090  28.899 -0.9555 -0.4132  0.3292
   48mB      Bm 6636   4.446   1.754  28.694 -0.0765 -0.7550  0.7750
   49mA      Am 6637   4.085   1.671  28.718 -0.4348  0.1139 -0.2087
   50mB      Bm 6638   3.757   1.819  28.803 -0.0219  0.3195  0.0425
   51mC      Cm 6639   3.491   2.055  28.901  0.8107  0.3911 -0.2838
   52mC      Cm 6640   3.319   2.425  28.924 -0.2370  0.4264  0.3334
   53mR      Rm 6641   3.350   2.195  29.174 -1.2733  1.2437  1.3987
   54mB      Bm 6642   3.299   2.787  28.844  0.1277 -0.7081 -0.3040
   55mA      Am 6643   3.407   3.133  28.797  0.1913  0.2610  0.7114
   56mB      Bm 6644   3.680   3.370  28.854  0.3728 -0.5067 -0.3433
   57mC      Cm 6645   4.018   3.500  28.941 -0.7970  0.1875  0.0351
   58mC      Cm 6646   4.433   3.486  28.970  0.0298 -0.8636  0.4104
   59mR      Rm 6647   4.208   3.619  29.198  1.5086  0.8854  1.9392
   60mB      Bm 6648   4.752   3.313  28.961 -0.5459 -0.2208  0.3647
   61mA      Am 6649   5.034   3.062  28.984 -0.4550 -0.2508  0.2983
   62mB      Bm 6650   5.126   2.712  29.059 -0.0615 -0.2571  0.0359
   63mC      Cm 6651   5.106   2.363  29.183 -0.0759  0.4503  0.0295
   64mC      Cm 6652   4.904   2.019  29.270 -0.2364  1.6645 -0.5111
   65mR      Rm 6653   5.144   2.167  29.458 -0.3185 -0.9487  0.6876
   66mB      Bm 6654   4.601   1.792  29.275  0.0833 -1.2508  1.2026
   67mA      Am 6655   4.247   1.693  29.343  0.3321 -0.3228 -0.1993
   68mB      Bm 6656   3.913   1.799  29.468 -0.2961 -1.0181 -0.4466
   69mC      Cm 6657   3.640   1.991  29.601  0.4255 -0.8232 -0.4780
   70mC      Cm 6658   3.416   2.338  29.609 -1.0429  1.8346 -0.0220
   71mR      Rm 6659   3.487   2.125  29.870  1.2378 -0.6117 -0.3174
   72mB      Bm 6660   3.346   2.692  29.530 -0.2105 -0.0406 -0.0914
   73mA      Am 6661   3.407   3.048  29.512  0.1847  0.3350 -0.1805
   74mB      Bm 6662   3.635   3.337  29.574  0.8185  0.3869 -0.4622
   75mC      Cm 6663   3.942   3.510  29.683 -0.9857  0.7087  0.3752
   76mC      Cm 6664   4.348   3.554  29.677  0.0718 -1.2526 -0.6985
   77mR      Rm 6665   4.140   3.600  29.944  0.4599 -0.3668  0.6680
   78mB      Bm 6666   4.699   3.467  29.566  0.7425  0.6527  0.8872
   79mA      Am 6667   4.986   3.245  29.524 -0.2821  0.2269  0.0867
   80mB      Bm 6668   5.126   2.916  29.588 -0.2211 -0.2887 -0.0789
   81mC      Cm 6669   5.158   2.576  29.725  0.1564  0.8765  0.5846
   82mC      Cm 6670   5.048   2.193  29.817 -0.5567 -0.5304  0.9516
   83mR      Rm 6671   5.218   2.410  30.012  0.0458 -0.3466 -0.7929
   84mB      Bm 6672   4.793   1.920  29.829 -0.0543 -0.9715  0.2575
   85mA      Am 6673   4.477   1.743  29.877  0.4140  0.6839 -0.5678
   86mB      Bm 6674   4.136   1.786  30.030 -0.3062 -1.0018  0.5537
   87mC      Cm 6675   3.839   1.936  30.198 -0.1687 -1.7824  0.4788
   88mC      Cm 6676   3.575   2.252  30.275  0.3666  1.1036  0.0241
   89mR      Rm 6677   3.743   2.061  30.496 -0.7725 -0.4918  0.8596
   90mB      Bm 6678   3.446   2.595  30.224  0.3479 -0.1363  0.3243
   91mA      Am 6679   3.441   2.962  30.207  0.1561 -0.3739 -1.1659
   92mB      Bm 6680   3.658   3.266  30.218  0.2555  0.5805 -0.0652
   93mC      Cm 6681   3.955   3.479  30.247 -0.7456 -1.3679 -0.0445
   94mC      Cm 6682   4.362   3.552  30.218  1.4325 -0.0026  0.3607
   95mR      Rm 6683   4.153   3.616  30.479 -0.3435 -0.1327  2.5287
   96mB      Bm 6684   4.709   3.469  30.148  0.4761  0.1647  0.5320
   97mA      Am 6685   5.027   3.275  30.130 -0.2934  0.4844 -0.1386
   98mB      Bm 6686   5.218   2.958  30.200 -0.0377 -0.0260 -0.3989
   99mC      Cm 6687   5.321   2.623  30.300  0.3093  0.6816  0.4148
  100mC      Cm 6688   5.279   2.220  30.342  0.1533  0.1002  0.4118
  101mR      Rm 6689   5.379   2.440  30.579 -0.6590  0.9139 -0.5390
  102mB      Bm 6690   5.116   1.881  30.295 -0.8020 -0.8601 -0.6293
  103mA      Am 6691   4.858   1.623  30.293 -0.6346 -0.9127  0.1355
  104mB      Bm 6692   4.518   1.523  30.354 -0.3109 -0.2694 -0.9870
  105mC      Cm 6693   4.159   1.533  30.463  0.5958  0.2775 -0.6571
  106mC      Cm 6694   3.768   1.636  30.444  0.5206  0.4178 -0.0353
  107mR      Rm 6695   3.948   1.565  30.720  0.8814  0.6818  2.4759
  108tB      Bt 6696   3.421   1.594  30.307 -0.2694 -0.1340 -0.2354
    1hA      Ah 6697  11.902  11.303  24.103  0.1224  0.5121  0.0445
    2mB      Bm 6698  11.898  11.674  24.041 -0.4087 -0.7294 -0.1612
    3mC      Cm 6699  11.795  12.001  23.916 -1.1756  0.0519 -0.7632
    4mC      Cm 6700  11.516  12.304  23.869  0.8621 -0.5679 -0.7389
    5mR      Rm 6701  11.711  12.170  23.638  0.9270 -0.8285  0.2735
    6mB      Bm 6702  11.185  12.474  23.911 -0.4543 -0.3601  0.2468
    7mA      Am 6703  10.823  12.544  23.931  0.1798 -0.6848  0.3187
    8mB      Bm 6704  10.472  12.419  23.915 -0.2231  0.0880 -0.8434
    9mC      Cm 6705  10.206  12.160  23.903  1.3855  0.4594  0.4747
   10mC      Cm 6706  10.033  11.789  23.988 -0.3180  1.0690 -1.0181
   11mR      Rm 6707  10.043  11.952  23.694  0.3716  1.0387 -0.7143
   12mB      Bm 6708  10.004  11.450  24.136  0.1563  0.7335  0.0605
   13mA      Am 6709  10.112  11.112  24.218  0.2708 -0.1561  0.0432
   14mB      Bm 6710  10.348  10.839  24.163  0.1877 -0.4980 -0.5779
   15mC      Cm 6711  10.636  10.640  24.039  1.2310 -0.1432  0.0357
   16mC      Cm 6712  11.020  10.605  23.937  0.0745  0.5140 -0.1564
   17mR      Rm 6713  10.751  10.492  23.768 -0.2598 -0.8390 -1.7871
   18mB      Bm 6714  11.353  10.754  23.875 -0.4467  0.0412  0.6877
   19mA      Am 6715  11.622  10.974  23.780  0.1429 -0.1909 -0.0581
   20mB      Bm 6716  11.706  11.289  23.610 -0.5498 -0.0655  0.3799
   21mC      Cm 6717  11.684  11.618  23.431  0.1286 -0.2992 -0.6199
   22mC      Cm 6718  11.505  11.982  23.359  0.1156  0.0072 -0.4933
   23mR      Rm 6719  11.636  11.774  23.138 -0.2126 -0.0293  1.6762
   24mB      Bm 6720  11.251  12.254  23.381 -0.1148 -0.1305  0.3021
   25mA      Am 6721  10.918  12.402  23.412 -0.6369 -0.6029  0.1398
   26mB      Bm 6722  10.564  12.312  23.391  0.7448  0.3259  0.7925
   27mC      Cm 6723  10.254  12.117  23.339 -0.0460 -0.5333 -1.8656
   28mC      Cm 6724  10.040  11.777  23.380  0.2065  1.0154  0.5478
   29mR      Rm 6725  10.077  11.966  23.098 -1.3739 -0.5183 -0.4420
   30mB      Bm 6726   9.973  11.436  23.501  0.2690 -0.1935 -0.5953
   31mA      Am 6727  10.036  11.075  23.576 -0.2596  0.3000  0.4455
   32mB      Bm 6728  10.245  10.782  23.557  0.2066 -0.4800  0.5311
   33mC      Cm 6729  10.498  10.534  23.468  0.4769  0.4610  0.1391
   34mC      Cm 6730  10.890  10.459  23.393 -0.0305 -0.6141 -0.6977
   35mR      Rm 6731  10.627  10.359  23.204 -0.1705  1.0487 -0.3863
   36mB      Bm 6732  11.256  10.546  23.367  0.4625 -0.3246  0.0585
   37mA      Am 6733  11.557  10.719  23.289 -0.9065  0.0381  0.8764
   38mB      Bm 6734  11.694  11.010  23.101 -0.0740 -0.1560 -0.0422
   39mC      Cm 6735  11.735  11.315  22.896 -0.1405 -0.8461 -0.8531
   40mC      Cm 6736  11.637  11.687  22.747 -0.7426  1.7185  0.7812
   41mR      Rm 6737  11.704  11.406  22.575  0.3651  0.0893  0.2481
   42mB      Bm 6738  11.421  11.992  22.744  0.2739  0.6389 -0.9287
   43mA      Am 6739  11.122  12.213  22.751 -0.1287 -0.0354  0.3036
   44mB      Bm 6740  10.749  12.231  22.744 -0.1327  0.5541 -0.3994
   45mC      Cm 6741  10.409  12.119  22.686 -0.3761  0.0809 -0.2319
   46mC      Cm 6742  10.129  11.829  22.730  0.9601 -0.5818  0.5290
   47mR      Rm 6743  10.194  12.008  22.451 -0.1168  0.2774 -0.6601
   48mB      Bm 6744   9.979  11.509  22.862 -0.4301  0.3181  0.0007
   49mA      Am 6745   9.928  11.161  22.942  0.1681 -0.3677  0.3244
   50mB      Bm 6746  10.079  10.824  22.933  0.4622  0.8620  0.3111
   51mC      Cm 6747  10.320  10.546  22.866 -0.7893  0.5006  1.0669
   52mC      Cm 6748  10.701  10.396  22.826  0.3463 -0.7442 -0.5141
   53mR      Rm 6749  10.443  10.332  22.625 -0.2056  0.6179 -1.3427
   54mB      Bm 6750  11.073  10.441  22.827  0.0214  0.2908 -0.1750
   55mA      Am 6751  11.422  10.567  22.770  0.1246  0.5154 -0.2562
   56mB      Bm 6752  11.626  10.824  22.588 -0.6250 -0.4380 -0.7848
   57mC      Cm 6753  11.710  11.114  22.364  0.0521 -0.1836  0.0040
   58mC      Cm 6754  11.616  11.473  22.200 -0.1588 -1.0522  0.3853
   59mR      Rm 6755  11.711  11.198  22.036  0.6116 -0.4268  1.2201
   60mB      Bm 6756  11.432  11.787  22.175  0.0388  0.5272 -0.3871
   61mA      Am 6757  11.168  12.036  22.149 -0.5907  0.2622 -0.3801
   62mB      Bm 6758  10.801  12.085  22.109 -0.1651 -0.3951  0.4288
   63mC      Cm 6759  10.436  12.034  22.069  0.6332  0.3011 -0.6569
   64mC      Cm 6760  10.097  11.817  22.137  0.2078  0.5149 -0.8118
   65mR      Rm 6761  10.200  11.944  21.848  0.4822  0.7999 -0.0327
   66mB      Bm 6762   9.912  11.536  22.284 -0.0283 -0.3659  0.3567
   67mA      Am 6763   9.813  11.184  22.380  0.1593 -0.1741  0.5061
   68mB      Bm 6764   9.917  10.837  22.356 -0.1438 -0.0164  0.1429
   69mC      Cm 6765  10.104  10.525  22.278  0.5042  0.8587  0.3914
   70mC      Cm 6766  10.453  10.320  22.241  0.8374  0.1987 -0.2660
   71mR      Rm 6767  10.190  10.323  22.035 -0.5448  0.4991  0.0742
   72mB      Bm 6768  10.822  10.293  22.230 -0.1075 -0.1497  0.0552
   73mA      Am 6769  11.187  10.355  22.166 -0.5625 -0.0954 -0.7826
   74mB      Bm 6770  11.411  10.603  22.011  0.4618 -0.4840  0.5585
   75mC      Cm 6771  11.533  10.895  21.805  0.2759  1.2743  0.0768
   76mC      Cm 6772  11.505  11.266  21.645  0.1959 -1.2008 -0.2218
   77mR      Rm 6773  11.597  10.977  21.486 -0.2648  1.0887  0.1656
   78mB      Bm 6774  11.322  11.595  21.608  0.4777 -0.2972  0.7483
   79mA      Am 6775  11.056  11.850  21.573 -0.0106 -0.2640 -0.8619
   80mB      Bm 6776  10.709  11.948  21.514  0.0091 -0.1223  0.1765
   81mC      Cm 6777  10.340  11.920  21.445 -0.9658 -0.5246 -0.4266
   82mC      Cm 6778   9.982  11.734  21.505  0.6414  0.0843 -0.5606
   83mR      Rm 6779  10.130  11.800  21.206 -0.3028  0.1180 -0.4777
   84mB      Bm 6780   9.776  11.472  21.684  0.3110  0.5539  1.4508
   85mA      Am 6781   9.682  11.140  21.817  0.1101 -0.7485  0.1397
   86mB      Bm 6782   9.783  10.782  21.816  0.0918  0.0459  0.0932
   87mC      Cm 6783   9.966  10.482  21.732  0.0317 -0.1177 -0.4999
   88mC      Cm 6784  10.298  10.251  21.694 -1.3852  0.7647  1.4822
   89mR      Rm 6785  10.015  10.235  21.494  0.4568  0.9045  0.5940
   90mB      Bm 6786  10.658  10.182  21.680  0.4112  0.2584 -0.0393
   91mA      Am 6787  11.024  10.225  21.589 -0.2723 -0.1365 -0.0665
   92mB      Bm 6788  11.275  10.435  21.425  0.3263 -0.7804 -0.0064
   93mC      Cm 6789  11.425  10.707  21.210 -0.3312  1.0953  0.1109
   94mC      Cm 6790  11.441  11.084  21.060  0.0939 -0.2493  0.8736
   95mR      Rm 6791  11.487  10.807  20.890  0.6129 -0.2022  1.5630
   96mB      Bm 6792  11.337  11.435  21.028  0.5677  0.6325 -0.6279
   97mA      Am 6793  11.134  11.746  20.973  0.5068  0.0207 -0.6225
   98mB      Bm 6794  10.797  11.877  20.908 -0.9049 -0.1603  0.3226
   99mC      Cm 6795  10.442  11.857  20.823  0.5222  0.4177 -0.4240
  100mC      Cm 6796  10.065  11.688  20.844  1.0091  0.2267  0.9895
  101mR      Rm 6797  10.235  11.792  20.563 -0.4025 -0.6955 -0.3828
  102mB      Bm 6798   9.792  11.452  20.952 -0.4368 -0.1367  0.1408
  103mA      Am 6799   9.637  11.136  21.054 -0.0766  0.4542 -0.1330
  104mB      Bm 6800   9.643  10.771  21.069 -0.6169 -0.3892  0.4700
  105mC      Cm 6801   9.753  10.426  21.039 -0.4325  0.7126 -0.1215
  106mC      Cm 6802  10.025  10.116  21.091  1.2550 -1.5956  0.7720
  107mR      Rm 6803   9.849  10.190  20.809  0.4556  0.2983 -0.3434
  108tB      Bt 6804  10.339   9.972  21.214 -0.1776  0.5228 -0.3943
    1hA      Ah 6805  11.738   9.295  26.885  0.0673 -0.4213  0.4479
    2mB      Bm 6806  11.781   9.658  26.841 -0.1254 -0.5403  0.0132
    3mC      Cm 6807  11.896  10.008  26.889 -0.1764  0.6928  0.4451
    4mC      Cm 6808  12.159  10.312  26.965 -0.6243  0.2928 -0.7704
    5mR      Rm 6809  11.852  10.253  27.106  1.2135  0.8742  0.8331
    6mB      Bm 6810  12.505  10.433  27.039  0.4862  0.3920  0.1658
    7mA      Am 6811  12.841  10.475  27.179  0.5791 -0.2739  0.0770
    8mB      Bm 6812  13.074  10.321  27.421 -0.6249  0.2943 -0.1201
    9mC      Cm 6813  13.226  10.092  27.679  0.3673 -0.5942 -0.1964
   10mC      Cm 6814  13.311   9.719  27.837 -1.4978 -0.4672  0.1986
   11mR      Rm 6815  13.230  10.009  28.007  0.0190  0.4502  0.6923
   12mB      Bm 6816  13.279   9.351  27.847  0.3968  0.5501 -1.4546
   13mA      Am 6817  13.134   9.001  27.829  0.0979  0.2541  0.2226
   14mB      Bm 6818  12.817   8.810  27.792 -0.5907 -1.2195  0.5663
   15mC      Cm 6819  12.463   8.724  27.757 -0.0645 -0.1707 -0.9367
   16mC      Cm 6820  12.094   8.835  27.623  1.0222 -0.9589 -0.7959
   17mR      Rm 6821  12.172   8.714  27.933 -1.4975  0.3973 -1.7802
   18mB      Bm 6822  11.839   9.023  27.435 -0.2815 -0.1859  0.2605
   19mA      Am 6823  11.638   9.319  27.325 -0.2277 -0.2134 -0.2058
   20mB      Bm 6824  11.537   9.670  27.371 -0.5825  0.3271 -0.2339
   21mC      Cm 6825  11.533  10.007  27.515 -0.4356 -0.8747  0.0231
   22mC      Cm 6826  11.711  10.355  27.642 -0.9460 -0.7563 -0.0777
   23mR      Rm 6827  11.459  10.189  27.789  0.3191 -0.4284 -0.7688
   24mB      Bm 6828  12.000  10.585  27.729 -0.6402 -1.1016  0.2553
   25mA      Am 6829  12.314  10.713  27.890  0.6050  0.5246  0.0920
   26mB      Bm 6830  12.603  10.584  28.087  0.2254  0.7472 -0.0020
   27mC      Cm 6831  12.811  10.368  28.298  0.4040  0.1852 -0.4325
   28mC      Cm 6832  12.976  10.004  28.398  1.1936 -0.2065  0.2292
   29mR      Rm 6833  12.841  10.230  28.608 -0.0028 -0.1403 -0.2802
   30mB      Bm 6834  13.029   9.645  28.371 -0.0460 -0.3123 -0.2126
   31mA      Am 6835  12.947   9.285  28.352 -0.3497 -0.7397  0.5391
   32mB      Bm 6836  12.706   8.999  28.352  0.6176  0.6485 -0.0376
   33mC      Cm 6837  12.391   8.790  28.376  0.2365  0.3497  0.3659
   34mC      Cm 6838  11.990   8.738  28.309 -0.5013 -0.1706  0.2387
   35mR      Rm 6839  12.160   8.698  28.612 -0.0235  1.0143  0.3922
   36mB      Bm 6840  11.663   8.828  28.158  0.8788 -0.3464 -0.5607
   37mA      Am 6841  11.386   9.046  28.062  0.0677 -0.3243 -0.2370
   38mB      Bm 6842  11.255   9.388  28.094 -0.6141  0.8995 -0.2542
   39mC      Cm 6843  11.211   9.747  28.184  0.2283 -0.6027 -0.0645
   40mC      Cm 6844  11.358  10.121  28.257 -0.1435 -1.2392 -0.1682
   41mR      Rm 6845  11.159   9.934  28.465 -0.5756 -1.3088 -0.1303
   42mB      Bm 6846  11.617  10.384  28.259  0.3839 -0.3984 -0.2147
   43mA      Am 6847  11.936  10.552  28.330  0.2353  0.7664 -0.4200
   44mB      Bm 6848  12.253  10.521  28.529 -0.0669  0.3424 -0.1028
   45mC      Cm 6849  12.503  10.361  28.756  1.0043 -0.9008 -0.5160
   46mC      Cm 6850  12.691  10.025  28.888  0.2960  0.4051 -0.5834
   47mR      Rm 6851  12.566  10.278  29.076  0.2841  0.5378 -0.1868
   48mB      Bm 6852  12.806   9.681  28.907 -0.6884 -0.4141  0.1388
   49mA      Am 6853  12.785   9.314  28.904 -0.0126  0.1961  0.6046
   50mB      Bm 6854  12.555   9.024  28.915 -0.3169 -0.6524 -1.2469
   51mC      Cm 6855  12.246   8.832  28.953  1.7506  0.0210 -0.1580
   52mC      Cm 6856  11.852   8.759  28.869  0.3060  1.3358 -0.2544
   53mR      Rm 6857  12.003   8.746  29.166  0.1708  0.6834  1.0068
   54mB      Bm 6858  11.519   8.810  28.710 -0.4548  0.1116  0.1135
   55mA      Am 6859  11.223   9.000  28.589 -0.0664  0.2144 -0.1084
   56mB      Bm 6860  11.034   9.324  28.604  0.1102 -0.5875 -0.0718
   57mC      Cm 6861  10.936   9.664  28.707 -0.4751  0.8873 -0.2510
   58mC      Cm 6862  11.010  10.061  28.792  0.7226  0.2945  0.9899
   59mR      Rm 6863  10.828   9.836  28.975 -1.5312 -1.0933  0.7517
   60mB      Bm 6864  11.247  10.352  28.804  0.1287 -0.5753 -0.4835
   61mA      Am 6865  11.545  10.543  28.868 -0.0946 -0.4664  0.2671
   62mB      Bm 6866  11.870  10.548  29.033 -0.0063 -0.0643  0.0018
   63mC      Cm 6867  12.158  10.442  29.243 -0.9444  0.1412  0.5113
   64mC      Cm 6868  12.429  10.173  29.384 -0.7703 -0.5777  1.1394
   65mR      Rm 6869  12.266  10.407  29.561 -0.1198  0.5578  0.1137
   66mB      Bm 6870  12.555   9.811  29.394 -0.7798  0.3256 -0.8818
   67mA      Am 6871  12.579   9.440  29.433 -0.1815  0.5757  0.2432
   68mB      Bm 6872  12.422   9.112  29.516 -0.2036 -0.4804  0.8572
   69mC      Cm 6873  12.165   8.853  29.602  0.3660  0.8865 -0.3469
   70mC      Cm 6874  11.807   8.646  29.559 -0.5872 -0.0290 -0.7833
   71mR      Rm 6875  11.960   8.741  29.848  1.2676  0.7772  1.1225
   72mB      Bm 6876  11.474   8.596  29.418  0.4211  0.4554  0.1512
   73mA      Am 6877  11.120   8.633  29.316 -0.2127  0.2974 -0.2904
   74mB      Bm 6878  10.805   8.817  29.307 -0.8462 -0.1669 -0.3296
   75mC      Cm 6879  10.533   9.050  29.384 -0.3402  0.0276  0.8678
   76mC      Cm 6880  10.373   9.420  29.458  0.9976 -0.5843  0.3656
   77mR      Rm 6881  10.309   9.143  29.640  0.0226  0.2726 -0.1591
   78mB      Bm 6882  10.377   9.790  29.445  0.5536 -0.4139 -0.0115
   79mA      Am 6883  10.483  10.148  29.508 -0.3183  0.4928  0.0917
   80mB      Bm 6884  10.700  10.399  29.678  0.7250  0.4332 -0.1435
   81mC      Cm 6885  10.941  10.558  29.911  0.1380  1.2436 -0.4978
   82mC      Cm 6886  11.299  10.564  30.109 -0.0144  0.6054  0.3329
   83mR      Rm 6887  10.996  10.647  30.224  0.6999 -0.0241 -1.0547
   84mB      Bm 6888  11.644  10.455  30.215 -0.5467 -0.5411  1.3650
   85mA      Am 6889  11.932  10.261  30.339  0.5151  0.7179 -0.8960
   86mB      Bm 6890  12.073   9.939  30.468 -0.6425  0.5048  0.8402
   87mC      Cm 6891  12.083   9.598  30.599 -0.0692 -1.4430  0.3874
   88mC      Cm 6892  11.986   9.202  30.652 -0.4700 -0.2549  0.6585
   89mR      Rm 6893  12.034   9.434  30.889  1.1391  1.0888 -0.9544
   90mB      Bm 6894  11.814   8.888  30.558  0.4878 -0.0768 -0.2783
   91mA      Am 6895  11.560   8.654  30.466 -1.1487 -0.1998  0.0209
   92mB      Bm 6896  11.213   8.558  30.409  0.0284  0.3122 -0.4815
   93mC      Cm 6897  10.832   8.574  30.373 -0.8425 -0.8064  0.1451
   94mC      Cm 6898  10.476   8.750  30.272  0.2917 -0.5555 -0.5217
   95mR      Rm 6899  10.550   8.595  30.549  0.1266  0.5904 -0.6672
   96mB      Bm 6900  10.277   9.033  30.128 -0.6704  0.3356  0.5025
   97mA      Am 6901  10.138   9.365  30.062  0.6396  0.0507 -0.4073
   98mB      Bm 6902  10.124   9.719  30.174  0.0029  0.4283 -0.0999
   99mC      Cm 6903  10.171  10.019  30.400  0.4298  0.4629  0.2822
  100mC      Cm 6904  10.383  10.245  30.664 -0.8786 -0.5973 -0.7624
  101mR      Rm 6905  10.072  10.128  30.703  0.8501  0.4218 -0.3037
  102mB      Bm 6906  10.696  10.341  30.838  0.1230  0.1408 -0.7932
  103mA      Am 6907  11.001  10.315  31.036  0.6712 -0.1718  1.0704
  104mB      Bm 6908  11.247  10.137  31.250 -0.4828  0.0516  0.4020
  105mC      Cm 6909  11.397   9.857  31.450  0.4562  1.0747 -1.5429
  106mC      Cm 6910  11.478   9.460  31.509  0.1212 -0.2201 -0.1949
  107mR      Rm 6911  11.340   9.675  31.731 -1.1790 -0.1639  0.0889
  108tB      Bt 6912  11.663   9.146  31.460 -0.5924 -1.1596 -0.3521
  109S        S 6913   4.125   6.617   5.673  0.2530  0.3154 -0.1599
  110S        S 6914   7.669  10.262  22.519  0.0349 -0.2625 -0.1340
  111S        S 6915  10.476   1.141  16.448  0.3428  0.2835  0.4057
  112S        S 6916   9.229   2.725  14.956  0.0274 -0.3655 -0.4926
  113S        S 6917  10.858   8.918  20.393 -0.0585  0.1139  0.4512
  114S        S 6918   1.632   0.017  18.916 -0.0785 -0.2697 -0.2192
  115S        S 6919   6.631   8.966   1.592 -0.5841  0.1467  0.7908
  116S        S 6920  10.779  10.206  13.884 -0.0516 -0.4558 -0.2795
  117S        S 6921  12.141   7.219  16.760  0.2520 -0.3178  0.2784
  118S        S 6922   3.922   6.341  27.347 -0.0648 -0.3290 -0.7045
  119S        S 6923   4.008  10.146  11.914  0.1715 -0.0580 -0.2765
  120S        S 6924   7.812   3.047  13.069 -0.0948  0.3545  0.0295
  121S        S 6925  11.858   4.629  14.105 -0.0020  0.3006  0.4306
  122S        S 6926   5.877  11.227  12.658 -0.6316  0.1022  0.1483
  123S        S 6927   4.029  10.550  14.739 -0.5723 -0.3307 -0.7662
  124S        S 6928   1.958   9.013  26.422 -0.3579  0.3086  0.3185
  125S        S 6929   0.698   2.753  18.076  0.7232 -0.3004  0.3116
  126S        S 6930   2.618   0.908  20.239  0.0556 -0.1170  0.0112
  127S        S 6931   4.694   2.986  16.835 -0.0099  0.1992 -0.2835
  128S        S 6932   0.720   1.050  14.303  0.6656  0.1164  0.2986
  129S        S 6933   7.024   5.638  12.619  0.2128  0.4778  0.0636
  130S        S 6934   3.946   8.437  16.428  0.1133  0.3024  0.1172
  131S        S 6935   8.435   5.427  11.015  0.0423 -0.1366  0.1374
  132S        S 6936   4.253   9.522  16.789  0.0621  0.1959  0.1961
  133S        S 6937  10.310   4.758  13.083  0.5180  0.1585 -0.4508
  134S        S 6938   1.207  10.113  27.301  0.2376 -0.0102 -0.1966
  135S        S 6939   9.925  12.096  15.838  0.0667  0.0939  0.2935
  136S        S 6940  10.078   8.813  12.720  0.2191 -0.0705 -0.4017
  137S        S 6941   9.474   6.474  15.889 -0.1647  0.0283  0.5713
  138S        S 6942   5.140   5.937  21.787  0.2768  0.4122  0.5496
  139S        S 6943  10.109   2.239  15.505 -0.0691  0.0448  0.1118
  140S        S 6944   9.254   9.797  14.045  0.1384 -0.1115 -0.6045
  141S        S 6945   9.585   5.713  27.392 -0.0427 -0.0379 -0.0734
  142S        S 6946  11.082   1.995   7.485 -0.3598 -0.2432 -0.1510
  143S        S 6947   3.918   4.179  29.110 -0.4620 -0.5063  0.0484
  144S        S 6948   9.097  12.122  25.345  0.2688 -0.2293 -0.1195
  145S        S 6949   5.675  10.923  11.935  0.0623 -0.3605  0.0611
  146S        S 6950   6.009   5.255  14.994  0.1441 -0.3894 -0.3788
  147S        S 6951   5.231   2.783  12.682  0.4111 -0.0170  0.0310
  148S        S 6952   6.996   0.144  21.392  0.2030  0.3055  0.3601
  149S        S 6953  11.097   9.752  29.972 -0.6004  0.5158 -0.3552
  150S        S 6954   2.080   5.865  23.219  0.5019 -0.0133 -0.2100
  151S        S 6955   1.076  10.939  12.009 -0.0075 -0.0435  0.0519
  152S        S 6956   3.759   0.815  19.401 -0.2582 -0.3927  0.1002
  153S        S 6957   4.183   2.831  23.023  0.3473  0.0388  0.1062
  154S        S 6958  10.373  10.802  21.593  0.3672  0.2488  0.0316
  155S        S 6959  10.402   4.242  31.323  0.0643  0.3905 -0.2024
  156S        S 6960   9.607   6.444  30.519 -0.2909  0.2072  0.4095
  157S        S 6961   0.985   4.294  19.298 -0.5995  0.2801  0.5185
  158S        S 6962   2.095  11.245  26.964  0.3081 -0.8518  0.0406
  159S        S 6963   0.664   6.419  15.729 -0.1431  0.4547 -0.2589
  160S        S 6964   2.327   9.740  18.657  0.0239 -0.7080 -0.4003
  161S        S 6965   3.520   2.526  21.793 -0.1897 -0.1453 -0.0767
  162S        S 6966   7.448   9.389  19.458 -0.1089 -0.0445  0.2156
  163S        S 6967   7.566   4.052  24.927  0.0584 -0.4381 -0.1385
  164S        S 6968   7.129   9.626  15.795 -0.2108  0.2027 -0.0467
  165S        S 6969   3.908   5.512  25.279  0.3839 -0.1923 -0.4074
  166S        S 6970  10.637   3.989   9.442 -0.0261 -0.3540 -0.3053
  167S        S 6971   7.480  10.876  29.298 -0.2944 -0.0051  0.2501
  168S        S 6972  10.617  10.280  29.056 -0.1129 -0.9270 -0.4701
  169S        S 6973  10.472   8.068  13.361 -0.1831 -0.0673 -0.3569
  170S        S 6974   3.713   0.234  23.570  0.4162 -0.3724  0.5187
  171S        S 6975  10.423   5.123  17.610 -0.0123  0.0246  0.1782
  172S        S 6976   2.754   1.643  29.642 -0.0482 -0.6294 -0.0861
  173S        S 6977  11.126   6.252  23.548  0.0872 -0.0837 -0.4267
  174S        S 6978   1.082   1.305  24.252 -0.6835  0.3133  0.5154
  175S        S 6979   7.236   5.562  45.537  0.1395 -0.3158  0.0661
  176S        S 6980   2.529   8.396  12.473 -0.0670 -0.6020  0.3621
  177S        S 6981   5.908   1.873  16.806 -0.0718  0.0380 -0.0812
  178S        S 6982   9.732   0.462  12.329  0.5332 -0.0875  0.0858
  179S        S 6983  11.102  10.942  17.781 -0.0675  0.1350 -0.9341
  180S        S 6984  10.215   5.701  20.560  0.3946 -0.1405  0.0813
  181S        S 6985   4.170   3.181  12.877  0.5336 -0.0507 -0.1340
  182S        S 6986   5.858   2.224  23.178 -0.1274  0.0226  0.1513
  183S        S 6987   0.772   7.213  12.214  0.0303  0.2258 -0.1862
  184S        S 6988   1.862   8.358  28.644  0.4002 -0.7403  0.1209
  185S        S 6989   4.273  10.985  13.035 -0.3233 -0.4316  0.5620
  186S        S 6990   5.713   6.187  23.433 -0.0973  0.0941  0.0167
  187S        S 6991   8.652   9.759  17.827  0.4126  0.3672  0.0948
  188S        S 6992   4.330   2.358  31.599  0.1351  0.0464 -0.4616
  189S        S 6993   7.853   8.971  20.695 -0.2345  0.2298 -0.4092
  190S        S 6994   6.793   2.284  26.786 -0.6714  0.4211  0.0047
  191S        S 6995  12.176   2.793  22.234 -0.1814  0.4506 -0.2267
  192S        S 6996   8.313   3.063  18.714 -0.2567  0.1994 -0.2749
  193S        S 6997   8.356   0.662  21.312 -0.3749 -0.4575  0.1783
  194S        S 6998   6.811   3.911   4.102 -0.3663 -0.0570  0.1911
  195S        S 6999   1.049  12.182  17.685 -0.3999  0.1155 -0.0200
  196S        S 7000   8.266   6.408  18.393  0.2113 -0.0661  0.0802
  197S        S 7001  11.839   8.177  16.055 -0.0364 -0.0570  0.5383
  198S        S 7002   2.804   8.281  20.896  0.1527  0.0642 -0.3845
  199S        S 7003  11.932   8.575  16.934  0.2547  0.4902 -0.6218
  200S        S 7004   3.322  10.969  11.711 -0.1087 -0.1114  0.0244
  201S        S 7005  10.129   7.438  18.837 -0.2965  0.1716  0.7291
  202S        S 7006   2.405  10.272  31.028  0.2611 -0.0738  0.1786
  203S        S 7007  10.805   1.195  17.945 -0.0637  0.2525 -0.1447
  204S        S 7008   7.422   4.463  24.325 -0.3522 -0.0645  0.6649
  205S        S 7009   2.488   6.502  28.921 -0.4643 -0.5383  0.1651
  206S        S 7010   5.566   6.634  13.086  0.3449 -0.2695  0.4331
  207S        S 7011   1.753   2.092  19.551  0.0190 -0.1582  0.2035
  208S        S 7012   8.550   7.646  30.295  0.0172 -0.6309 -0.8327
  209S        S 7013   8.684  11.703  20.008  0.1060 -0.2475  0.0686
  210S        S 7014   7.986   0.916  13.480 -0.2910  0.2666 -0.1937
  211S        S 7015  11.686   7.771  28.511  0.1689 -0.3865  0.0673
  212S        S 7016   2.600  11.146  15.949  0.0075 -0.8216 -0.0770
  213S        S 7017   0.593   2.606  22.368 -0.0718  0.1436  0.0603
  214S        S 7018   1.668   4.532  13.394 -0.1636 -0.0524 -0.2084
  215S        S 7019   6.245   4.480  19.574 -0.2605 -0.1787 -0.2100
  216S        S 7020   3.516  10.217  31.683 -0.2203 -0.5566 -0.2702
  217S        S 7021   9.135   4.388  26.111 -0.1020  0.1163  0.4218
  218S        S 7022   8.684   6.636  20.323 -0.1332  0.1972 -0.6300
  219S        S 7023   2.273   3.484  22.512  0.1585  0.2442  0.0366
  220S        S 7024   4.124  11.402  18.611 -0.0599 -0.3427  0.2533
  221S        S 7025   1.664  12.328  30.422 -0.4288  0.0735  0.5757
  222S        S 7026   7.537   0.756  24.293 -0.0600 -0.1283  0.2535
  223S        S 7027   3.421   1.281  13.355 -0.4240  0.2610  0.0886
  224S        S 7028   5.439   3.704  21.661  0.3015 -0.2327 -0.1843
  225S        S 7029   4.641   6.714  48.264 -0.7982  0.1576  0.6028
  226S        S 7030   9.132   4.919  21.185 -0.1208 -0.1842 -0.0418
  227S        S 7031   5.342   5.976  19.558  0.2379 -0.1942  0.5891
  228S        S 7032   6.958   8.784  18.673  0.1843 -0.0456  0.1785
  229S        S 7033   8.720  10.723  34.359  0.4485 -0.7655 -0.0396
  230S        S 7034  10.618   4.940  14.019 -0.0989 -0.0484 -0.2650
  231S        S 7035   6.414   6.243  14.516  0.3785  0.5611  0.1161
  232S        S 7036   1.697   1.855  28.055  0.0720  0.1552 -0.1549
  233S        S 7037   8.901   7.841  19.912  0.3347 -0.2291  0.2711
  234S        S 7038   7.241   2.707  13.803 -0.0757 -0.4059 -0.0741
  235S        S 7039   9.424  11.968  16.775  0.0711 -0.1229 -0.1555
  236S        S 7040  11.386   8.437  18.186 -0.4799 -0.5568  0.1705
  237S        S 7041   0.185   8.114  25.259  0.0745  0.2540  0.5425
  238S        S 7042   2.279   5.161  30.013 -0.2431 -0.2546 -0.1900
  239S        S 7043   4.808   0.149  23.253  0.3755 -0.1361  0.5751
  240S        S 7044   5.532  11.128  14.248  0.1326 -0.3680 -0.1752
  241S        S 7045   8.166   0.756  15.279 -0.0482  0.5223  0.1986
  242S        S 7046   1.167   9.162  13.408  0.1693  0.4434 -0.1445
  243S        S 7047   6.189   0.348  12.222  0.2642  0.2602 -0.2847
  244S        S 7048   7.501   8.135  23.499  0.0364 -0.1028 -0.1049
  245S        S 7049   2.993   0.228  26.844 -0.1751 -0.0538  0.4690
  246S        S 7050  12.305   2.376  31.053 -0.1896  0.4962  0.1098
  247S        S 7051  12.217   4.160  20.750 -0.1497  0.5981  0.2924
  248S        S 7052   7.994   9.258  11.702 -0.2584 -0.1054  0.1016
  249S        S 7053   4.086  11.227  18.018  0.2045  0.0577 -0.3352
  250S        S 7054   2.997  10.584  20.929  0.3664  0.1569 -0.2376
  251S        S 7055  12.250  10.103  26.622  0.2914  0.7013 -0.1841
  252S        S 7056   1.381   1.068  19.308  0.4498 -0.1052 -0.2429
  253S        S 7057   4.916   3.659  16.042 -0.1050  0.2538  0.1260
  254S        S 7058   6.849   2.735  12.927 -0.0405  0.2832 -0.0891
  255S        S 7059   4.608  10.217  18.819 -0.4979  0.2643  0.1208
  256S        S 7060   0.116  12.232  24.565  0.6203 -0.5366 -0.0246
  257S        S 7061   8.939  11.608  23.317 -0.1635 -0.2534  0.0485
  258S        S 7062   7.119  11.672  28.750 -0.3832 -0.5656 -0.0616
  259S        S 7063   7.340  10.681  20.613  0.1489  0.0446 -0.0670
  260S        S 7064   8.294   8.057  25.762  0.3528 -0.3581 -0.0814
  261S        S 7065  12.296  10.028  22.863 -0.1799 -0.0725  0.1178
  262S        S 7066   2.381   8.669  17.018 -0.0863 -0.1574  0.1496
  263S        S 7067   1.376   1.904  14.034  0.1944  0.0697 -0.0954
  264S        S 7068   7.408   2.491  29.507 -0.0888  0.1716 -0.1008
  265S        S 7069   1.209   7.341  27.816 -0.1687  0.0141  0.2703
  266S        S 7070   8.659   8.254  23.546 -0.1671 -0.0789 -0.3224
  267S        S 7071   8.957   8.931  13.365 -0.1770 -0.3119  0.4847
  268S        S 7072   5.517   8.097  28.812 -0.1907  0.0466 -0.8058
  269S        S 7073   3.348   9.034  15.585 -0.0218 -0.2121 -0.2694
  270S        S 7074   9.397   7.194  25.813 -0.2055 -0.7187  0.7314
  271S        S 7075   6.522  12.176  11.525  0.0922 -0.1368 -0.1160
  272S        S 7076   0.387   0.173  21.063  0.1096  0.0405 -0.8104
  273S        S 7077  11.222   7.627  10.959 -0.0064  0.2135  0.0781
  274S        S 7078   8.493   2.073  28.725 -0.3739 -0.3201  0.2233
  275S        S 7079   3.619  11.168  24.997 -0.3049  0.4095  0.3710
  276S        S 7080  11.593   6.107  29.651  0.2471  0.1306  0.1224
  277S        S 7081   5.666   5.639  20.140 -0.0077 -0.2078 -0.3655
  278S        S 7082   8.634   9.417  27.759  0.2551 -0.0188  0.3967
  279S        S 7083   9.287   8.509  12.056 -0.1074 -0.0914 -0.2674
  280S        S 7084   9.170  11.818  18.416 -0.1264  0.6005 -0.1594
  281S        S 7085   0.030   7.970  21.520  0.1923  0.2274 -0.0589
  282S        S 7086   2.237   7.774  16.684  0.2569  0.2328  0.5043
  283S        S 7087   9.139  12.280  26.259  0.7015  0.1805  0.2573
  284S        S 7088   9.977   8.781  17.710 -0.3492  0.4122 -0.1917
  285S        S 7089   8.834   9.746  16.347  0.3402 -0.2264  0.6809
  286S        S 7090   5.601   5.207  23.704  0.2959  0.4408  0.1053
  287S        S 7091  11.531   0.962  23.531  0.0860  0.6010  0.3342
  288S        S 7092  12.084   3.908  14.702 -0.3262  0.0708 -0.1982
  289S        S 7093   2.529   4.020  22.898  0.1746  0.2605  0.4921
  290S        S 7094   7.953   6.425  27.963 -0.2242  0.6030  0.0793
  291S        S 7095  12.147   6.945  25.189  0.1394 -0.2340  0.2878
  292S        S 7096   7.498   9.842  25.975 -0.1661  0.2649 -0.2645
  293S        S 7097   3.130   4.310  12.461  0.3627 -0.2575  0.2410
  294S        S 7098   6.106  10.350  19.406 -0.3004  0.1456  0.3673
  295S        S 7099   8.937  11.975  15.528  0.0735  0.4567  0.1737
  296S        S 7100   2.772   7.566  29.108  0.4294  0.5452 -0.5607
  297S        S 7101   4.533   2.656  27.381  0.1006 -0.0935  0.7179
  298S        S 7102   3.762  10.028  11.471 -0.2690  0.1936  0.0076
  299S        S 7103   8.470   4.276  13.909  0.1106 -0.2117  0.2355
  300S        S 7104   6.852  10.862  26.479 -0.2697  0.0082  0.3142
  301S        S 7105   1.104  10.748  15.248 -0.1116  0.4376  0.6940
  302S        S 7106  12.051   3.158  14.035  0.1320 -0.2750 -0.4914
  303S        S 7107   4.159   9.539  21.870  0.3822  0.1760 -0.3090
  304S        S 7108   4.423   6.639   5.227  0.2558 -0.3139  0.2675
  305S        S 7109  10.184   1.499  14.542 -0.1336  0.4781  0.0177
  306S        S 7110   8.911   3.384  20.650 -0.0312 -0.5470  0.0833
  307S        S 7111   8.115   9.149  13.312  0.1746  0.1763 -0.3886
  308S        S 7112  12.336  12.221  20.052  0.0758  0.0189  0.5290
  309S        S 7113   6.939   2.676  19.592 -0.1101 -0.1862  0.1036
  310S        S 7114   4.349   0.950  30.135  0.1210  0.5370  0.0537
  311S        S 7115   8.725  10.056  18.962 -0.4947  0.3507  0.3326
  312S        S 7116   1.111   1.997  16.759 -0.0139 -0.0027  0.0756
  313S        S 7117   0.049   2.234  14.240 -0.4525 -0.5297 -0.2108
  314S        S 7118   1.051   2.412  16.291 -0.4091  0.0562  0.5866
  315S        S 7119   9.277   5.327  21.786  0.2383 -0.0145  0.7524
  316S        S 7120   6.242   1.929  18.640 -0.0015  0.0472 -0.5369
  317S        S 7121   2.832   5.253  18.433  0.0226 -0.6971  0.2788
  318S        S 7122   6.928   0.071  27.956 -0.2657 -0.2960  0.4045
  319S        S 7123   9.338  10.108  14.830 -0.1401 -0.3497  0.0831
  320S        S 7124   8.860   9.238  16.226 -0.5173  0.1483 -0.1334
  321S        S 7125   7.223   8.523  27.534  0.0649  0.2959  1.0138
  322S        S 7126   6.261   2.272  32.084 -0.0151  0.3394 -0.0120
  323S        S 7127   4.722   4.580  13.017 -0.2767 -0.1669 -0.3194
  324S        S 7128   0.194  11.326  18.559  0.1383  0.1219  0.0123
  325S        S 7129   0.827  11.371  26.341 -0.5457  0.1326 -0.3329
  326S        S 7130  11.840   3.898  11.488 -0.3887  0.0294  0.0223
  327S        S 7131  10.871   6.643  23.290 -0.7483 -0.4117  0.0905
  328S        S 7132   3.438   3.769  15.791 -0.1473 -0.0750  0.1011
  329S        S 7133  11.163   1.993  23.740  0.3440  0.2441 -0.0953
  330S        S 7134   6.141   1.682  25.058 -0.1374 -0.3427  0.0353
  331S        S 7135   3.654   6.677  14.036  0.4897 -0.2113  0.2890
  332S        S 7136   2.648   6.909  20.677 -0.2862  0.0343 -0.1718
  333S        S 7137   7.569   9.667  18.244 -0.0223 -0.5474  0.0099
  334S        S 7138  10.686   7.347  20.026 -0.3241 -0.2625 -0.2650
  335S        S 7139   8.361   8.491  29.173 -0.4090  0.1331 -0.6771
  336S        S 7140   3.764   0.933   5.305  0.0852  0.0274 -0.1064
  337S        S 7141   8.155   8.160  12.165  0.1955 -0.0921  0.4321
  338S        S 7142  10.003   6.151  31.997  0.8410 -0.1141 -0.0090
  339S        S 7143   5.007   9.000  14.974  0.2777  0.2857  0.2912
  340S        S 7144  10.379   2.354  13.711 -0.2194 -0.3507  0.2226
  341S        S 7145   7.871   4.385  12.110  0.3000 -0.1247 -0.5892
  342S        S 7146   4.101  10.668  14.099 -0.2121  0.1653 -0.2914
  343S        S 7147   2.788   3.323  24.898  0.4384 -0.2077  0.0613
  344S        S 7148   8.773   4.221  22.730  0.2276  0.1180  0.3662
  345S        S 7149   6.723   6.423  26.042  0.3770  0.4167  0.1797
  346S        S 7150   0.158   2.946  22.573 -0.0899 -0.0982  0.1029
  347S        S 7151   5.795   7.480  22.541  0.3609 -0.0701 -0.2966
  348S        S 7152   6.955   4.750  21.050 -0.0318 -0.0682  0.1040
  349S        S 7153   6.452   6.113  12.258 -0.0622 -0.4842  0.1217
  350S        S 7154  11.933   0.145  24.536 -0.3347  0.5197 -0.0188
  351S        S 7155   0.078   6.067  15.100 -0.1296  0.0757 -0.4648
  352S        S 7156  12.150   1.060  22.793  0.0761 -0.5893 -0.2519
  353S        S 7157   1.633  11.825  17.176 -0.1781  0.4980 -0.2130
  354S        S 7158   4.932   0.144  15.445  0.1844 -0.0982  0.0514
  355S        S 7159   8.993   5.913  14.608 -0.2743 -0.0332  0.8333
  356S        S 7160  11.706   8.269  29.004 -0.3104  0.1831 -0.4069
  357S        S 7161   7.361   7.862  24.287  0.0752  0.1626 -0.4350
  358S        S 7162   9.121   1.152  11.596  0.1249  0.1608  0.2128
  359S        S 7163  10.923   9.542  25.669  0.3953 -0.1378 -0.2212
  360S        S 7164   0.438   9.690  12.907  0.0751 -0.2956 -0.1619
  361S        S 7165   7.303   1.239  14.282  0.3071 -0.7664 -0.1363
  362S        S 7166   7.025   9.754  22.225  0.4137 -0.4720 -0.3305
  363S        S 7167   9.679   2.130  14.270 -0.1682 -0.1854 -0.1872
  364S        S 7168   4.784   2.696  20.726  0.0372 -0.1347  0.2788
  365S        S 7169   7.203   2.922  23.802  0.0121 -0.1613 -0.0891
  366S        S 7170   9.954   6.742  17.151  0.3200 -0.0237  0.1601
  367S        S 7171   9.088   8.339  11.576 -0.6873 -0.3136 -0.3363
  368S        S 7172   4.815   0.002  24.386 -0.0238 -0.3042 -0.0294
  369S        S 7173   1.640  10.491  28.910  0.4158  0.2277 -0.0276
  370S        S 7174   8.340   9.165  21.385  0.0105 -0.1371  0.4702
  371S        S 7175  10.386   7.339  23.044  0.3853  0.0158 -0.4139
  372S        S 7176   8.448   2.007  12.180 -0.5557  0.2940 -0.2271
  373S        S 7177   3.096   1.509  16.351  0.7683  0.3172 -0.0399
  374S        S 7178  11.423   4.160  14.404 -0.6465 -0.1087  0.2878
  375S        S 7179  11.457   4.045  12.912  0.1938  0.0412  0.3132
  376S        S 7180   3.043   9.585  19.150 -0.2597 -0.0512 -0.1029
  377S        S 7181   8.595   7.700  27.221 -0.3317 -0.3073 -0.2926
  378S        S 7182   2.285  11.655  20.381  0.4320  0.0766 -0.9259
  379S        S 7183   8.961   2.186  18.189 -0.0881  0.1150  0.0514
  380S        S 7184   2.570   1.581  12.663  0.3272 -0.0806  0.2598
  381S        S 7185  10.210   0.520  20.976  0.5140 -0.3962 -0.1506
  382S        S 7186   8.775   2.302  17.698  0.5040 -0.1917  0.5090
  383S        S 7187   0.596  10.297  34.865 -0.5414  0.5010  0.5091
  384S        S 7188   4.627   4.985  12.678  0.3440  0.4760 -0.1259
  385S        S 7189   2.284   6.822  18.558 -0.3099  0.5091  0.1390
  386S        S 7190   4.486  10.776  20.246 -0.2478  0.5144 -0.4621
  387S        S 7191   6.329   2.197  30.332 -0.1431 -0.0238 -0.1910
  388S        S 7192   5.322   4.736  23.503  0.2050 -0.6974 -0.1147
  389S        S 7193   8.586   7.889  18.117 -0.4969 -0.1609  0.0954
  390S        S 7194   0.090   5.832  31.431 -0.2088  0.3886  0.4230
  391S        S 7195  11.788   1.939  15.886  0.0862 -0.0535  0.5378
  392S        S 7196  11.416   8.982  25.380 -0.2384  0.0495 -0.2575
  393S        S 7197   7.453   0.565  28.079  0.1590  0.1294 -0.2378
  394S        S 7198   2.406  10.592  27.787  0.1155  0.0748  0.2924
  395S        S 7199   6.134   4.380  29.272  0.1090  0.6857 -0.4381
  396S        S 7200   7.661   5.479  20.308  0.0796 -0.0960 -0.1958
  397S        S 7201   6.218   5.998  29.502  0.3808 -0.3344  0.2498
  398S        S 7202   2.051   3.845  22.704  0.0525  0.1716 -0.3089
  399S        S 7203   3.816  10.314  26.054  0.1028  0.5895 -0.7438
  400S        S 7204  11.772  10.984  20.010 -0.0166 -0.2149 -0.1462
  401S        S 7205   0.157   8.061  12.432  0.2308 -0.2350 -0.1217
  402S        S 7206   6.584   2.579  31.672  0.0976  0.9292 -0.2571
  403S        S 7207  11.264  10.481  31.772  0.5311 -0.0798  0.1575
  404S        S 7208   3.841   4.069  19.604  0.3343 -0.1646 -0.1427
  405S        S 7209   2.781  12.333  29.997 -0.2131 -0.2267 -0.4282
  406S        S 7210   6.279   9.259   1.860 -0.6114  0.2600  0.1545
  407S        S 7211  10.897  11.470  26.522  0.1443  0.1482  0.2149
  408S        S 7212   3.399   0.689  20.776 -0.2784 -0.0307 -0.2906
  409S        S 7213  11.573   4.705  20.316 -0.1248 -0.4535  0.2109
  410S        S 7214   3.737  12.354  31.322  0.3276  0.1897 -0.4556
  411S        S 7215   5.777   5.493  28.362  0.0593 -0.0726 -0.1256
  412S        S 7216   9.483   8.381  13.888  0.0735  0.0783 -0.2450
  413S        S 7217   2.502   3.486  12.579 -0.5048  0.1425 -0.3648
  414S        S 7218   4.584   7.600  20.493  0.1323 -0.6655 -0.5663
  415S        S 7219   5.607  12.005  26.935 -0.3705 -0.1845 -0.0739
  416S        S 7220   1.151   3.125  24.621  0.2283  0.5442 -0.3426
  417S        S 7221   7.463  10.923  15.780 -0.1094 -0.1888 -0.1935
  418S        S 7222   6.390   1.053  19.108  0.7153  0.4107 -0.0011
  419S        S 7223  11.795   3.502  13.802 -0.2643  0.8351  0.2387
  420S        S 7224  12.101   7.432  31.621 -0.5146 -0.1260 -0.1054
  421S        S 7225   0.729  11.168  30.560  0.0977 -0.1871  0.1362
  422S        S 7226   0.327  10.842  27.430  0.0484 -0.1290  0.1674
  423S        S 7227   3.649   1.020  27.386  0.2593  0.4021 -0.3096
  424S        S 7228   4.787   9.565  29.836 -0.2240  0.4666  0.2523
  425S        S 7229   8.316   3.804  15.257 -0.0684 -0.3931  0.1677
  426S        S 7230   3.642   5.893  32.977  1.0114  0.5628  0.0464
  427S        S 7231   8.198  10.892  16.997 -0.0068 -0.1660 -0.1812
  428S        S 7232   8.586   8.522  14.086 -0.2959 -0.0816 -0.2419
  429S        S 7233   2.908  11.447  24.870 -0.0181  0.0564  0.0758
  430S        S 7234   8.665   9.530  15.245 -0.0995  0.5156 -0.3395
  431S        S 7235  10.173   1.005  25.859  0.5222 -0.1710 -0.1476
  432S        S 7236   9.489   6.477  11.203  0.2141 -0.2559 -0.1569
  433S        S 7237   8.717   7.943  13.203  0.2345 -0.6071  0.2380
  434S        S 7238   2.421   6.763  20.222  0.1048 -0.7214 -0.0422
  435S        S 7239   8.839  10.667  32.604 -1.1525 -1.3087 -0.9375
  436S        S 7240   9.903   3.427  19.293  0.6983  0.6581  0.1507
  437S        S 7241   3.901   1.142  11.951 -0.2262  0.0504  0.3538
  438S        S 7242   7.812   0.510  22.963  0.1835  0.2105 -0.0260
  439S        S 7243   9.485   9.883  27.873 -0.3348 -0.0524 -0.0451
  440S        S 7244   5.069   8.599  23.921  0.0571 -0.4017 -0.5079
  441S        S 7245   5.718   0.534  20.801 -0.2232 -0.1932  0.2656
  442S        S 7246  10.519   1.158  26.764  0.1147  0.2322  0.3463
  443S        S 7247   8.795   8.514  11.985 -0.2399  0.1733 -0.0157
  444S        S 7248   4.535   2.483  13.027  0.2719  0.2732  0.3135
  445S        S 7249   8.161  10.360  11.454  0.2855  0.0652 -0.4665
  446S        S 7250   4.280   1.354  24.958  0.0802 -0.2626  0.0750
  447S        S 7251   8.008  10.909  12.331  0.0698 -0.4233 -0.2992
  448S        S 7252   4.904   8.780  12.892  0.2100 -0.4658  0.7448
  449S        S 7253   6.455   1.508  15.127 -0.2858 -0.3982 -0.3124
  450S        S 7254   9.202   6.831  30.492  0.0600  0.3873  0.0190
  451S        S 7255   9.994   2.061  12.317 -0.1490 -0.2768 -0.0788
  452S        S 7256   7.704   6.061  24.226 -1.0292 -0.3837 -0.0540
  453S        S 7257   0.707   9.779  17.615  0.4916 -0.1160  0.2153
  454S        S 7258  10.711   6.752  11.805 -0.1697  0.0953 -0.2370
  455S        S 7259   6.444   3.896  20.925  0.4216 -0.3419  0.0274
  456S        S 7260   5.787   6.306  16.837 -0.2995 -0.1245  0.2142
  457S        S 7261   9.685   9.143  12.502  0.6018  0.4418 -0.0294
  458S        S 7262   6.602  12.084  27.286 -0.2027 -0.6180  0.6117
  459S        S 7263   6.861   3.063  27.214 -0.0894 -0.6562  0.0693
  460S        S 7264   2.738  10.201  28.535 -0.0983 -0.2034  0.1437
  461S        S 7265   9.039   7.026  25.380 -0.1929  0.3527  0.1512
  462S        S 7266   9.301   3.634  29.813 -0.4709  0.0549 -0.1355
  463S        S 7267  11.274   8.887  21.262  0.4448 -0.4631  0.2948
  464S        S 7268   9.445   8.461  20.195 -0.5506  0.2627  0.2060
  465S        S 7269   6.964   3.452  30.869  0.2127  0.0260  0.1163
  466S        S 7270   8.758   5.163  20.348  0.0851  0.2059 -0.4622
  467S        S 7271   6.617   7.691  19.422  0.1238 -0.0586 -0.1509
  468S        S 7272   1.179  10.618  11.150  0.1329  0.3577  0.3207
  469S        S 7273   2.641   1.298  32.287  0.0183  0.3726 -0.4595
  470S        S 7274   1.190   3.712  14.685  0.1386 -0.4414  0.4932
  471S        S 7275   6.779   2.513  15.172  0.2409 -0.1188 -0.2744
  472S        S 7276   2.451   0.620   3.567  0.0633  0.1644  0.1384
  473S        S 7277   9.705   4.907  15.248 -0.1855 -0.0578 -0.2739
  474S        S 7278   1.464   5.464  12.277 -0.3613  0.0935  0.0116
  475S        S 7279   2.101   4.808  22.766  0.0102  0.0445 -0.0148
  476S        S 7280   8.603   1.296  28.006 -0.0831  0.8553 -0.0777
  477S        S 7281   7.340   5.843  22.643 -0.1070  0.3912  0.0383
  478S        S 7282  11.397   9.530  35.058  0.1661 -0.2004  0.3317
  479S        S 7283   9.479   5.811  14.493 -0.2316  0.0731 -0.2231
  480S        S 7284   5.048  10.717  12.305  0.5960 -0.1941 -0.3633
  481S        S 7285   8.803   2.800  23.648 -0.4504  0.2454  0.8862
  482S        S 7286   1.689  10.600  22.005 -0.2094 -0.4853 -0.2753
  483S        S 7287   3.558   6.774   9.099  0.3381 -0.0142  0.2413
  484S        S 7288  10.005   7.219  12.256  0.3137 -0.2072 -0.2199
  485S        S 7289   0.919   3.724  13.423  0.1097 -0.1713  0.1902
  486S        S 7290   1.572   7.337  19.485  0.3359  0.1411 -0.1673
  487S        S 7291   7.963   5.837  20.441  0.4380  0.1051  0.1290
  488S        S 7292  10.433   9.030  17.334 -0.0444  0.4042 -0.2446
  489S        S 7293   9.167   5.982  26.920  0.2256  0.1246 -0.4199
  490S        S 7294  11.668   0.775  19.300 -0.1914  0.0724  0.2694
  491S        S 7295   7.498   9.838  19.155 -0.3553 -0.1955  0.0215
  492S        S 7296   3.667  12.299  11.245 -0.3123  0.6205  0.0498
  493S        S 7297   6.949   3.244  23.266 -0.9793  0.3850 -0.0719
  494S        S 7298   4.310   0.402  28.641  0.4044 -0.9808  0.2566
  495S        S 7299   5.488  10.212  19.275 -0.1046 -0.1728  0.0645
  496S        S 7300   3.310   8.876  23.044 -0.7109  0.0221  0.3281
  497S        S 7301   6.708  11.256  22.851  0.0139  0.0433  0.0274
  498S        S 7302   3.069   6.666  20.984 -0.0393 -0.0352 -0.4205
  499S        S 7303   7.460   1.023  25.318 -0.5114 -0.3744  0.0280
  500S        S 7304   2.887   8.814  18.188  0.2570  0.0433 -0.4614
  501S        S 7305   7.572   8.935  32.003 -0.0555  0.2191  0.0612
  502S        S 7306  11.013   4.617  23.895  0.3566 -0.1248  0.0476
  503S        S 7307   5.833   0.365  30.775  0.1562 -0.2986 -0.0321
  504S        S 7308   4.618   2.144  13.998 -0.4393 -0.1486 -0.3829
  505S        S 7309  12.197  12.150  27.686 -0.3964  0.7105  0.0350
  506S        S 7310   2.653   1.124  30.754 -0.2693  0.3561 -0.2563
  507S        S 7311   4.384  11.485  14.463  0.3003 -0.0100  0.0431
  508S        S 7312   8.571   2.952  33.349  0.3001 -0.3698 -0.1052
  509S        S 7313   1.536   7.395  20.824 -0.2983 -0.1518 -0.0561
  510S        S 7314  10.089  10.115  28.524 -0.0611 -0.4177  0.1411
  511S        S 7315   5.967   8.398  11.429 -0.2507  0.2778  0.3947
  512S        S 7316  10.097   5.701  18.285  0.2013 -0.0976 -0.0534
  513S        S 7317   9.548   4.419  17.796 -0.0338  0.2786 -0.2218
  514S        S 7318   5.396   4.567  28.481  0.1211  0.1967  0.4202
  515S        S 7319  10.219   9.055  26.647 -0.0645 -0.3346 -0.4719
  516S        S 7320   6.973   1.174  30.569 -0.1231  0.1168 -0.1821
  517S        S 7321   9.788   3.645  21.645  0.0867 -0.1213 -0.7636
  518S        S 7322   9.479   3.899  23.789 -0.4303  0.2537 -0.1888
  519S        S 7323  11.996   7.919  14.930 -0.1224 -0.3459 -0.0067
  520S        S 7324  10.824  11.095  27.400 -0.2419 -0.5153  0.0415
  521S        S 7325   7.664  11.351  20.091 -0.2537  0.1731  0.2287
  522S        S 7326   0.553   4.572  17.979  0.1640 -0.1238 -0.4249
  523S        S 7327  10.248   7.773  17.810  0.1892 -0.1112 -0.0179
  524S        S 7328   5.666   1.181  26.288 -0.8124  0.5621 -0.4917
  525S        S 7329  11.310   7.138  23.831  0.5434  0.1039 -0.2438
  526S        S 7330   6.526   4.528  23.232  0.1213  0.0255 -0.2928
  527S        S 7331   5.836   5.706  34.742  0.0439 -0.0703  0.1561
  528S        S 7332   9.033   8.707  16.455  0.0371 -0.0526  0.0501
  529S        S 7333   3.529   1.335  27.786  0.7723  0.4051  0.1074
  530S        S 7334  10.786   1.831  24.616 -0.4826  0.6638  0.0925
  531S        S 7335   6.998   7.431  25.563 -0.3772 -0.3929 -0.1763
  532S        S 7336   7.087   8.468  28.559 -0.2234 -0.2680  0.2212
  533S        S 7337   2.436   4.494  23.051 -0.5690 -0.4665 -0.3404
  534S        S 7338  11.245   2.828  16.208  0.2622 -0.5464 -0.2532
  535S        S 7339   6.289   3.264  16.885  0.1900 -0.6101 -0.0295
  536S        S 7340   5.595   9.537  25.824 -0.1566 -0.3070 -0.1604
  537S        S 7341  11.049   8.561  30.929 -0.6630  0.1052 -0.2830
  538S        S 7342   5.746   0.284  12.391  0.1096 -0.6712  0.4674
  539S        S 7343   8.378   9.896  15.080 -0.2219  0.1675 -0.0628
  540S        S 7344   2.093   6.958  25.822  0.1892 -0.5683 -0.2180
  541S        S 7345   1.504   0.559  25.019 -0.3644  0.4821  0.2248
  542S        S 7346   4.562   9.376  19.737 -0.2353  0.3424  0.2365
  543S        S 7347   5.004   0.425  12.828 -0.1159  0.2584  0.3813
  544S        S 7348   4.116   5.947  22.390  0.3161  0.2622  0.1521
  545S        S 7349   1.325   0.662  26.829  0.0963 -0.3643  0.5410
  546S        S 7350   5.263   3.753  17.040  0.1370 -0.3095  0.0840
  547S        S 7351   5.781   2.912  13.708 -0.3075 -0.0283 -0.3656
  548S        S 7352  11.044   6.284   5.897 -0.2401  0.1318  0.0627
  549S        S 7353   3.413   8.506  23.614  0.4027 -0.1542  0.0010
  550S        S 7354   1.563  10.209  26.261 -0.1983  0.1764  0.1593
  551S        S 7355   5.166   5.140  15.165  0.1023  0.0620 -0.2417
  552S        S 7356   1.225   0.963  13.787 -0.2376  0.3065 -0.2674
  553S        S 7357  12.309   7.324  12.240  0.2866  0.2681 -0.3497
  554S        S 7358   5.082   8.012  11.388 -0.2224  0.1064  0.1550
  555S        S 7359   0.291   4.469  13.097  0.0696  0.3294  0.0611
  556S        S 7360   1.767   4.773  27.083 -0.0254 -0.3346  0.1817
  557S        S 7361  10.521   1.505  29.052  0.4046 -0.0399  0.2481
  558S        S 7362  10.112  10.660  25.205  0.4484  0.5159  0.3868
  559S        S 7363   9.061   6.458  28.870 -0.0051 -0.3475 -0.0143
  560S        S 7364   4.214   7.986  23.918  0.1743  0.3497 -0.8232
  561S        S 7365   0.136   9.675  13.838  0.2190 -0.4345 -0.4142
  562S        S 7366  10.370   4.399  25.184  0.0150  0.2855 -0.4215
  563S        S 7367   4.117   9.941  18.947 -0.3021 -0.1750 -0.4799
  564S        S 7368   8.270   2.001  21.002 -0.3619 -0.1180 -0.1467
  565S        S 7369   9.131  10.529  29.038 -0.0600 -0.0110  0.0646
  566S        S 7370   9.369  10.695  22.383 -0.1666 -0.4912 -0.3494
  567S        S 7371   1.057   6.853  14.949  0.0777  0.2011 -0.2016
  568S        S 7372   5.035   8.142  24.308  0.5052 -0.3710 -0.0428
  569S        S 7373   6.988   8.341  18.370  0.7285 -0.1153  0.0269
  570S        S 7374   1.648   9.011  16.760  0.2462 -0.2429  0.2757
  571S        S 7375  10.795   0.048  14.536 -0.3666  0.4212  0.5775
  572S        S 7376  10.777   0.068  21.216  0.0810 -0.2540 -0.0488
  573S        S 7377   7.372   0.096  27.825  0.6478  0.4157  0.1089
  574S        S 7378   1.291   8.593  13.297 -0.1751 -0.0840  0.1672
  575S        S 7379   5.985  11.020  16.242 -0.1227  0.1737  0.1297
  576S        S 7380   5.890   3.463  12.485 -0.0830 -0.5345  0.4865
  577S        S 7381   7.702   6.664  21.117  0.0677  0.3500 -0.4944
  578S        S 7382  11.625  10.896  10.847  0.2982  0.0169  0.3940
  579S        S 7383   0.084  10.006  28.396 -0.7328  0.1914 -0.0400
  580S        S 7384   0.985  10.343  21.792  0.1964  0.3501  0.4332
  581S        S 7385   5.504   5.537  17.654  0.0722 -0.2907  0.6110
  582S        S 7386   3.683  10.441  17.057  0.1773 -0.2451  0.3510
  583S        S 7387   3.789   5.601  30.358  0.0202 -0.1154  0.3252
  584S        S 7388   9.333   6.249  21.343  0.0712  0.0222 -0.1908
  585S        S 7389   3.422   4.372  27.193  0.1216 -0.3959 -0.0692
  586S        S 7390   5.236  10.483  19.660  0.0674  0.3977 -0.1764
  587S        S 7391   2.484   1.018  18.454 -0.0922 -0.4797  0.1617
  588S        S 7392   1.059  10.104  16.684 -0.2081  0.3725 -0.5608
  589S        S 7393   4.784   0.320  28.738 -0.2541 -0.0770 -0.7704
  590S        S 7394   0.218  10.549  25.215  0.4248 -0.2057 -0.0225
  591S        S 7395   3.576   6.512  33.110 -0.1490 -0.1466 -0.5469
  592S        S 7396   7.726  10.534  14.748 -0.2621 -0.4700  0.2751
  593S        S 7397   2.058   2.064  27.789 -0.5201  0.3168 -0.0037
  594S        S 7398   2.506   5.449  23.352 -0.1441 -0.1674  0.2138
  595S        S 7399   4.513   6.233  16.874 -0.3231 -0.2957  0.5289
  596S        S 7400  11.618   1.561  26.652 -0.1404 -0.1665  0.5277
  597S        S 7401  11.519   7.884  23.953 -0.2284  0.0807 -0.2813
  598S        S 7402  11.503   9.240  16.741 -0.1183  0.1889 -0.0849
  599S        S 7403   4.903   0.033  31.824 -0.1971  0.8010 -0.3611
  600S        S 7404   7.940   9.373  20.363 -0.0697  0.2375  0.0316
  601S        S 7405  10.376   4.618  14.383 -0.0389 -0.5500 -0.0150
  602S        S 7406   1.932   5.875  27.346 -0.5382  0.0346  0.0506
  603S        S 7407   9.257   5.303  20.299  0.3862 -0.1741  0.1353
  604S        S 7408   9.479   8.238  27.171 -0.1166  0.1155 -0.1932
  605S        S 7409   0.638   2.237  19.928 -0.1589 -0.0375  0.4426
  606S        S 7410   2.663   4.890  12.524  0.2580  0.1838 -0.0964
  607S        S 7411   0.610   6.998  29.980 -0.4515  0.0249  0.1742
  608S        S 7412   3.329   9.752  18.210 -0.1396  0.3125  0.0879
  609S        S 7413   7.285   8.973  20.571  0.0743  0.0895  0.3751
  610S        S 7414   3.174   9.192  28.038 -0.0965 -0.0961 -0.4344
  611S        S 7415   8.912   2.928  48.965  0.1929 -0.0437 -0.3505
  612S        S 7416   3.105   9.857  27.337  0.0163 -0.0466  0.2085
  613S        S 7417   5.301  10.563  22.557  0.5016 -0.2604  0.2122
  614S        S 7418  10.304   7.798  18.392 -0.0873  0.5793  0.1232
  615S        S 7419   3.300  11.636  22.390 -0.3845 -0.3202  0.2927
  616S        S 7420   7.075   0.268  21.960 -0.2467 -0.6731 -0.1890
  617S        S 7421  10.171   9.738  28.213  0.3246 -0.1688  0.3530
  618S        S 7422   3.840   3.342  20.235  0.1975 -0.0837  0.3088
  619S        S 7423  11.043   8.516  19.888 -0.0587 -0.3255 -0.0609
  620S        S 7424   4.264   1.968  14.476  0.2085 -0.3570 -0.4561
  621S        S 7425   6.144   8.038  20.218 -0.3399  0.0725 -0.4870
  622S        S 7426   5.020   2.822  24.759  0.3365  0.0258  0.0194
  623S        S 7427   5.066   7.681  18.234 -0.1881  0.6557 -0.0048
  624S        S 7428   5.004   9.746  12.255 -0.1547 -0.4928 -0.3764
  625S        S 7429   4.881  11.861  24.343  0.1988 -0.2572  0.2720
  626S        S 7430   4.487   2.192  27.775  0.0041 -0.7560  0.9029
  627S        S 7431   7.129   8.702  32.486  0.1391  0.2094 -0.3154
  628S        S 7432   7.796   8.539  30.781 -0.3102  0.2354  0.5364
  629S        S 7433  11.604  10.890  32.863  0.2522 -0.2781  0.3011
  630S        S 7434   0.052   8.869  30.037 -0.6777  0.4657  0.3435
  631S        S 7435  10.530   4.882  24.081 -0.2178 -0.6321  0.4055
  632S        S 7436   7.822   1.181  13.004  0.2930 -0.1881 -0.2742
  633S        S 7437   8.168   8.630  16.775  0.2136  0.3335 -0.3890
  634S        S 7438   1.361   7.608  29.676 -0.1744 -0.0231 -0.2543
  635S        S 7439   3.854   3.036  26.795  0.1856  0.0373 -0.0406
  636S        S 7440   9.734   0.651  14.209  0.2964 -0.3492 -0.0298
  637S        S 7441   0.952   9.125  12.404  0.2895 -0.6037  0.4459
  638S        S 7442   0.858   3.702  27.402  0.4923 -0.2616  0.1440
  639S        S 7443  11.051   0.568  13.841  0.4157  0.3115 -0.0177
  640S        S 7444   9.054   8.372  14.209 -0.6572 -0.3760 -0.0799
  641S        S 7445   7.849   6.591  29.622  0.5200  0.3969 -0.5723
  642S        S 7446   1.588   6.139  21.805 -0.1752 -0.1318  0.2451
  643S        S 7447   8.262   4.336  23.600 -0.0674  0.4252  0.1060
  644S        S 7448   1.340   9.206  30.462 -0.2301 -0.1796  0.2349
  645S        S 7449   5.094   6.906  24.589 -0.1784 -0.1254 -0.1866
  646S        S 7450   9.347   2.260  16.424  0.1989 -0.0795  0.2705
  647S        S 7451   9.342   4.756  26.621 -0.3336 -0.4398  0.4789
  648S        S 7452  12.360   7.900  15.264 -0.2284  0.3520 -0.2381
  649S        S 7453   3.681   6.872  24.532 -0.1595 -0.3591  0.5955
  650S        S 7454   5.264   5.855  23.308  0.1986  0.2294 -0.7503
  651S        S 7455  10.844   2.643  21.042  0.1943  0.5546 -0.7391
  652S        S 7456   4.977   0.395  20.199 -0.3835  0.0073 -0.1950
  653S        S 7457   7.689  11.080  29.885 -0.0906  0.7942  0.4732
  654S        S 7458   7.890   3.141  25.294 -0.2348  0.3066 -0.5018
  655S        S 7459   7.897  10.962  24.417  0.1486  0.2014  0.3816
  656S        S 7460  11.669   1.463  23.634 -0.4101 -0.0523 -0.3689
  657S        S 7461   1.789   0.719  20.618 -0.1372  0.0335 -0.0517
  658S        S 7462   1.805   8.407  20.491  0.0441 -0.0372 -0.3576
  659S        S 7463   9.877   0.204  25.918 -0.4794  0.4942 -0.2815
  660S        S 7464   4.673   1.501  11.334  0.1781  0.0665 -0.6037
  661S        S 7465  12.218   3.533  28.202  0.1116 -0.1114 -0.2456
  662S        S 7466   8.011   1.209   9.523 -0.0238 -0.1628  0.0732
  663S        S 7467   1.126   3.321  12.630  0.6223 -0.0736  0.3923
  664S        S 7468   8.164   8.872  14.718 -0.3299 -0.0010 -0.0186
  665S        S 7469   3.974  10.094  20.170  0.2397  0.3400 -0.1580
  666S        S 7470   7.206   3.900  38.648  0.1851  0.1354  0.3197
  667S        S 7471  11.953   3.582  17.253  0.1227  0.5316 -0.7670
  668S        S 7472   3.629   8.506  30.012 -0.0527 -0.4277 -0.6429
  669S        S 7473   9.875   7.027  15.217 -0.3220 -0.1099  0.4241
  670S        S 7474   0.152  10.337  17.141 -0.5242 -0.1992  0.3475
  671S        S 7475   7.456   8.621  16.124  0.6157 -0.3907  0.1849
  672S        S 7476   7.648   0.471  13.474 -0.3474 -0.1888  0.1585
  673S        S 7477   1.198   9.523  17.563 -0.2803 -0.2004  0.2289
  674S        S 7478   9.907   0.889  11.256 -0.1789 -0.2718 -0.5574
  675S        S 7479   3.373  10.037  30.466 -0.7333  0.0949 -0.1017
  676S        S 7480   7.960   2.241  25.120  0.5533 -0.1217 -0.5653
  677S        S 7481  10.437  11.655  22.424 -0.1613  0.2632  0.3656
  678S        S 7482   4.007   8.010  17.873  0.5199  0.3156  0.4493
  679S        S 7483  11.908   7.355  14.688 -0.3675 -0.0316  0.4918
  680S        S 7484   9.862  12.181  14.129 -0.2966  0.0391 -0.0316
  681S        S 7485   4.471   0.223  17.581 -0.3691 -0.5072  0.0022
  682S        S 7486   5.840   9.340  12.816  0.1201 -0.8047  0.0615
  683S        S 7487   5.047  11.155   5.018  0.2397  0.0052  0.1118
  684S        S 7488  12.225   3.305  16.307  0.2083 -0.1378 -0.3189
  685S        S 7489   5.543  10.702  16.114  0.1816  0.0948  0.2954
  686S        S 7490   0.751   7.432  16.837 -0.2880  0.7277  0.3028
  687S        S 7491   9.414   1.913  22.964  0.2381  0.1731  0.0985
  688S        S 7492  11.860   1.637  13.030  0.1677 -0.3535 -0.0669
  689S        S 7493   4.286   1.506  13.137 -0.0194  0.1946  0.1654
  690S        S 7494   4.597  11.283  27.111 -0.0194 -0.2831 -0.0410
  691S        S 7495   9.587   3.710  11.889  0.1087 -0.3300 -0.1597
  692S        S 7496   3.235   1.975  17.472  0.4626 -0.2696  0.0950
  693S        S 7497   0.612   7.196  15.116  0.6438  0.0893 -0.4001
  694S        S 7498   5.422  11.346  30.447  0.1033  0.3727  0.0202
  695S        S 7499   6.663   2.805  28.121 -0.2747  0.1650 -0.4505
  696S        S 7500   3.808   9.426  29.647  0.4373  0.3745 -0.3682
  697S        S 7501   5.328   2.412  23.131 -0.0165  0.1866  0.1589
  698S        S 7502   8.353   9.004  28.185 -0.2408  0.2227 -0.3096
  699S        S 7503   1.709   8.931  11.001  0.1473  0.4004  0.3701
  700S        S 7504   0.091   0.977  17.009  0.0143 -0.1504  0.4750
  701S        S 7505  10.983   4.353  18.303  0.6185  0.1080 -0.2197
  702S        S 7506   0.996   1.616  13.040  0.2172  0.3404 -0.1555
  703S        S 7507   2.822   9.734  24.261  0.0970  0.1212  0.5762
  704S        S 7508   0.725   9.976  21.478  0.1036  0.4914  0.4377
  705S        S 7509   6.418  10.742  26.739 -0.0254 -0.1125  0.2414
  706S        S 7510   5.779   4.875  13.769 -0.4405  0.3670  0.2303
  707S        S 7511   8.369   3.670  25.819 -0.6289  0.0809  0.0206
  708S        S 7512   6.990  11.717  24.048  0.1484  0.0805  0.2706
  709S        S 7513   9.090   0.012  28.937  0.2777 -0.5304 -0.1016
  710S        S 7514   7.925   9.848  23.097  0.1032  0.9908  0.2263
  711S        S 7515   2.708   8.404  30.810 -0.4873  0.5920  0.3703
  712S        S 7516   1.551   0.057  47.454  0.2198  0.0844 -0.1473
  713S        S 7517   9.973   1.538  28.129  0.7808  0.2558  0.1844
  714S        S 7518   4.495   7.977  25.638  0.2902  0.2247 -0.6720
  715S        S 7519   6.723  11.645  14.706  0.3302  0.0521  0.1925
  716S        S 7520   4.678  11.537  15.289 -0.2979 -0.2043  0.5147
  717S        S 7521   5.910   1.448  24.561  0.0919 -0.3378  0.0939
  718S        S 7522   6.661   2.856  13.944  0.5037 -0.0017 -0.1070
  719S        S 7523   3.594   7.813  23.608 -0.0422  0.3645  0.3563
  720S        S 7524   7.687   8.781  24.343  0.4833 -0.2043  0.0114
  721S        S 7525   6.540  12.250  29.474  0.1107 -0.1154 -0.2590
  722S        S 7526   5.142   5.390  18.013 -0.2659 -0.0420 -0.0821
  723S        S 7527   7.760   5.605  11.818 -0.4840 -0.0399 -0.1774
  724S        S 7528   0.255   7.684  25.458  0.2759  0.7441 -0.0840
  725S        S 7529   8.162   0.052  28.459  0.0414  0.0048 -0.0632
  726S        S 7530   2.944  11.880  20.305  0.3444  0.2204  0.0573
  727S        S 7531   8.090   8.884  23.998 -0.3421  0.4354 -0.1216
  728S        S 7532   3.346   9.208  15.067  0.3884  0.4271  0.1420
  729S        S 7533   1.942  10.544  31.237  0.0827  0.3839  0.2271
  730S        S 7534   4.184   9.106  12.411 -0.0354  0.1458  0.3063
  731S        S 7535   7.859   8.995  25.023 -0.1704 -0.0400 -0.0959
  732S        S 7536   8.849   4.595  12.295 -0.2627 -0.2811 -0.1130
  733S        S 7537   4.918   7.964  10.356 -0.3053 -0.1269 -0.2506
  734S        S 7538   7.572  10.858  20.111  0.1062 -0.4604 -0.4366
  735S        S 7539  11.328   6.958  29.036  0.1026  0.5626 -0.0399
  736S        S 7540   6.331   5.206  12.614 -0.2934 -0.4187  0.2228
  737S        S 7541   0.309   2.232  23.596 -0.4579  0.3077 -0.3410
  738S        S 7542   9.668   7.393  15.557 -0.0387  0.0021  0.1253
  739S        S 7543   5.982  11.636  15.328  0.1693 -0.2917 -0.5967
  740S        S 7544   7.235   4.088  13.801  0.0142 -0.0191 -0.4949
  741S        S 7545   4.866  10.179  17.291 -0.0716  0.1949  0.1062
  742S        S 7546   2.745   4.570  28.198  0.0554  0.1817  0.0199
  743S        S 7547   5.480   5.749  20.832 -0.4081 -0.1333 -0.1001
  744S        S 7548   2.105  10.100  11.434  0.1798  0.1714 -0.3125
  745S        S 7549   8.561   7.226  12.251 -0.1451  0.7095  0.2656
  746S        S 7550   1.314   6.566  13.047  0.0863 -0.2323 -0.6862
  747S        S 7551   6.376   8.868  27.379  0.2187  0.0464 -0.1810
  748S        S 7552  11.957  11.251  11.126 -0.2832 -0.0630  0.3977
  749S        S 7553   9.032   4.580  22.269 -0.2324 -0.3319  0.6113
  750S        S 7554   0.526   1.187  19.841 -0.2257  0.4241  0.1701
  751S        S 7555   9.816   2.768  29.467  0.1617  0.5230  0.1693
  752S        S 7556   2.047   5.866  24.122  0.1424 -0.2612  0.0296
  753S        S 7557   7.511   9.191  24.701 -0.4705 -0.1858 -0.2618
  754S        S 7558  11.190   1.800  26.521  0.3668  0.5043 -0.0764
  755S        S 7559  11.351   2.047  13.222 -0.2869  0.3361  0.0562
  756S        S 7560   2.689  11.658  19.879  0.4726 -0.0429 -0.5295
  757S        S 7561   2.368   8.561  14.378  0.0852  0.3191 -0.4837
  758S        S 7562   2.494   0.105  18.076  0.6693  0.4319 -0.1205
  759S        S 7563  12.061   5.314  18.121 -0.2129  0.3173  0.3312
  760S        S 7564   3.730  11.762  19.749 -0.0422  0.2206  0.5438
  761S        S 7565   0.032   7.450  21.601  0.1818 -0.7370 -0.3467
  762S        S 7566   0.459   2.792  13.890 -0.1992  0.1293 -0.5093
  763S        S 7567  10.133   0.706  13.852 -0.2421 -0.0998  0.1327
  764S        S 7568   1.767  10.349  24.239 -0.0642 -0.1613  0.3674
  765S        S 7569   3.484  11.487  13.113  0.1725  0.3784 -0.0258
  766S        S 7570   6.150   1.053  23.553  0.3746  0.7792 -0.2561
  767S        S 7571   9.857  11.024  26.370 -0.2424 -0.5349  0.2851
  768S        S 7572  10.136  11.125  14.105 -0.0901  0.5453 -0.2604
  769S        S 7573   0.127   4.126  15.442 -0.0385  0.2923  0.0944
  770S        S 7574   4.055  10.076  25.637 -0.5328  0.0341 -0.5740
  771S        S 7575  12.308   5.469  29.089  0.0142 -0.6753  0.1306
  772S        S 7576   8.039   9.941  25.791  0.4002  0.0338  0.2075
  773S        S 7577   5.275   0.163  27.563 -0.1856 -0.0870 -0.2609
  774S        S 7578   4.112   0.332  27.186 -0.0939  0.1971 -0.6760
  775S        S 7579   0.608   2.336  20.945 -0.5620 -0.0791  0.6010
  776S        S 7580   2.799   6.441  16.600  0.5087 -0.1976 -0.3417
  777S        S 7581   6.664   1.951  15.414  0.0126 -0.2798  0.1555
  778S        S 7582  11.378  12.235  21.609  0.3754 -0.0044  0.2049
  779S        S 7583   8.160   4.797  28.856 -0.0375 -0.6079  0.0512
  780S        S 7584   8.238   9.597  12.090  0.0221  0.2953 -0.0261
  781S        S 7585   3.666   4.407  22.388  0.3357 -0.1671  0.1582
  782S        S 7586   8.047  10.115  21.408 -0.0835  0.0154  0.3725
  783S        S 7587   1.680  11.769  11.276  0.4854 -0.2392 -0.0200
  784S        S 7588  10.494   6.658  20.018 -0.7976  0.2308  0.1043
  785S        S 7589   6.883   3.136  21.583  0.0450  0.2669 -0.6821
  786S        S 7590   1.027   7.081  12.882 -0.0509  0.2571 -0.1622
  787S        S 7591   5.744   1.875  29.426 -0.4259  0.2134 -0.1171
  788S        S 7592   9.932   9.380  23.281 -0.1149  0.0908 -0.2544
  789S        S 7593  10.253   5.373  21.087  0.1909 -0.1574 -0.3544
  790S        S 7594   0.036   4.497  12.650  0.4142 -0.1381 -0.3750
  791S        S 7595  12.286   7.771  23.742  0.3049  0.0572  0.5745
  792S        S 7596   2.536   7.230  15.940 -0.0447  0.0145  0.0915
  793S        S 7597   5.636   3.308  26.036 -0.6737 -0.1447  0.8247
  794S        S 7598   6.064  12.295  11.148 -0.0787  0.4180 -0.2481
  795S        S 7599   3.326   5.345  14.117  0.1391  0.1451 -0.4014
  796S        S 7600   8.178   7.699  28.303 -0.4907  0.0486 -0.3016
  797S        S 7601   0.128   4.399  26.055 -0.2141  0.3541  0.8244
  798S        S 7602   9.597  10.311  42.152  0.1752  0.5302  0.2054
  799S        S 7603   0.926   8.306  29.330  0.6010 -0.3632  0.2096
  800S        S 7604   7.639   5.195  15.007 -0.1249 -0.4359  0.0031
  801S        S 7605   6.644   2.323  13.994  0.5980 -0.1271 -0.2985
  802S        S 7606   3.687   6.575  15.052  0.0905 -0.4429  0.1141
  803S        S 7607   0.128   0.682  25.445 -0.2634 -0.0741  0.4696
  804S        S 7608   2.222  11.474  12.268  0.3060  0.2466 -0.5216
  805S        S 7609   6.390  10.947  15.864  0.6217  0.3932 -0.1685
  806S        S 7610   0.847  11.003  17.414  0.2168 -0.3919  0.0554
  807S        S 7611   7.377   1.020  13.419  0.2580  0.2856  0.3828
  808S        S 7612   9.262   8.392  29.911 -0.3677  0.1136  0.3877
  809S        S 7613   0.433   6.537  27.656 -0.3239 -0.1647 -0.3849
  810S        S 7614   9.937   1.517  15.604  0.5023  0.0201  0.3061
  811S        S 7615   8.656  10.411  11.709  0.6017 -0.0325  0.5488
  812S        S 7616  10.570  11.700  17.148  0.1847 -0.5745 -0.1460
  813S        S 7617   7.935  12.202  17.717 -0.2933  0.0765  0.6986
  814S        S 7618  11.574  11.484  10.905 -0.4206  0.1130  0.4821
  815S        S 7619   0.040  11.269  20.848 -0.2916 -0.5177  0.0775
  816S        S 7620  11.098   8.130  20.982 -0.1971 -0.1019 -0.4020
  817S        S 7621   8.877   0.714  13.285 -0.2013 -0.1962  0.2639
  818S        S 7622  10.533   3.037  25.485  0.2783 -0.1316 -0.2357
  819S        S 7623   4.166   9.090  18.152 -0.1836 -0.3103 -0.1203
  820S        S 7624   6.187   0.697  27.978  0.0363  0.1203  0.7268
  821S        S 7625   9.382  10.791  20.071  0.0016 -0.1062  0.1564
  822S        S 7626  11.455   2.273  18.235 -0.0524  0.2521  0.4471
  823S        S 7627   3.654  11.811  45.088  0.1650 -0.0649  0.5298
  824S        S 7628  11.549   5.167  11.237 -0.1877 -0.0737  0.0726
  825S        S 7629   8.796   5.680  13.719  0.5479  0.4926 -0.2305
  826S        S 7630   2.582   0.768  21.264 -0.3800  0.0543  0.3167
  827S        S 7631   6.163   3.981  29.813  0.5554 -0.7023  0.3300
  828S        S 7632   9.685   4.666  31.516 -0.4205  0.1341 -0.0442
  829S        S 7633   8.109   5.062  27.061  0.1068  0.1310 -0.9538
  830S        S 7634  11.234  10.002  35.601 -0.2072 -0.3708  0.0878
  831S        S 7635  10.378   9.008  39.488  0.0158  0.1412  0.1966
  832S        S 7636   6.794  11.078  23.393  0.0974 -0.3818 -0.5565
  833S        S 7637   3.145   9.133  13.804 -0.0501  0.0294  0.1108
  834S        S 7638   7.594   9.528  25.615  0.7591  0.0341 -0.3629
  835S        S 7639  11.988   1.000  37.892 -0.1101  0.0821 -0.0474
  836S        S 7640   0.871   6.622  12.734 -0.7108 -0.1739 -0.2137
  837S        S 7641   5.770   4.998  16.892  0.0242  0.3627 -0.1243
  838S        S 7642   6.775   9.041  32.495  0.2727 -0.0836  0.3575
  839S        S 7643   6.467   0.542  23.422  0.1702  0.2233 -0.1209
  840S        S 7644  11.924   7.786  32.162 -0.2060 -0.6777 -0.1157
  841S        S 7645  11.038   2.521  12.448  0.4051  0.4310  0.2950
  842S        S 7646   3.811   0.138  22.176 -0.1017 -0.3328  0.0887
  843S        S 7647  11.868   0.443  16.724 -0.2400 -0.1700  0.2724
  844S        S 7648  11.592   0.764  21.155  0.1919 -0.3603  0.2820
  845S        S 7649   6.921   7.284  28.254  0.4758 -0.4204  0.2004
  846S        S 7650   6.151   9.689   9.836 -0.2511 -0.2500  0.3677
  847S        S 7651   8.402   9.686  20.503 -0.2214 -0.4861  0.2466
  848S        S 7652  11.588   9.214  12.204 -0.4850 -0.3928  0.4643
  849S        S 7653  11.339   9.641  14.492  0.1877  0.0759 -0.0503
  850S        S 7654   4.842  12.244  21.870  0.1129  0.5970 -0.4746
  851S        S 7655   3.774   9.761  30.070  0.1656  0.1696  0.0756
  852S        S 7656   1.392   7.857  30.364  0.5184 -0.2954 -0.2963
  853S        S 7657  10.947   7.800  29.782  0.0477 -0.0921  0.7039
  854S        S 7658   6.585  10.857  14.473 -0.0650  0.3460  0.3099
  855S        S 7659   5.780   5.672  24.020  0.3589  0.3221  0.0907
  856S        S 7660   1.797   1.848  25.276 -0.1051 -0.1464 -0.1556
  857S        S 7661   2.964  12.071  11.505  0.0226  0.2979  0.2645
  858S        S 7662   8.979   5.099  29.909 -0.3787 -0.4211  0.1680
  859S        S 7663   7.049   6.127  14.864  0.1484 -0.2540 -0.0920
  860S        S 7664   0.557  11.348  30.038  0.1148 -0.8097 -0.1375
  861S        S 7665   3.386   7.321  13.092  0.1801 -0.0600 -0.1177
  862S        S 7666   3.146   6.841  19.271 -0.0443 -0.2570  0.0856
  863S        S 7667   3.908  11.112  21.297 -0.3238 -0.3545 -0.1007
  864S        S 7668   5.224   9.354  12.991 -0.1766 -0.1734 -0.5040
  865S        S 7669   1.613   6.263  24.815  0.0547 -0.4299  0.3399
  866S        S 7670   6.884   7.277  23.717  0.2151  0.2440 -0.0885
  867S        S 7671  11.659   4.919  14.469 -0.0193  0.0967 -0.2471
  868S        S 7672  11.928   0.993  16.592  0.1391 -0.1367  0.0704
  869S        S 7673   0.854  10.849  18.809 -0.1765 -0.0295  0.1654
  870S        S 7674   4.122   1.902  15.355  0.5530  0.2589 -0.1622
  871S        S 7675   6.815   8.735  10.995 -0.3119  0.1127  0.2049
  872S        S 7676  10.902   9.159  12.446 -0.4344  0.1023  0.0766
  873S        S 7677   7.601   9.262  22.004  0.5768  0.0890  0.3460
  874S        S 7678   6.031   3.117  17.385 -0.1030 -0.2755 -0.0922
  875S        S 7679   5.670  11.423  21.390  0.2169 -0.4367  0.2465
  876S        S 7680   9.940   2.671  24.632  0.2257  0.0731  0.3168
  877S        S 7681  10.569   3.119  20.851 -0.2050 -0.0566  0.2524
  878S        S 7682   1.190   1.935  16.105 -0.2156  0.3516  0.0093
  879S        S 7683   0.898   8.075  11.715 -0.0216 -0.2400  0.2210
  880S        S 7684   0.415   5.087  30.746 -0.1381  0.4135 -0.2647
  881S        S 7685   7.923   2.972  14.347 -0.1806  0.0986 -0.3021
  882S        S 7686   0.564   3.857  19.076  0.3847 -0.1522 -0.0235
  883S        S 7687   1.165   7.778  16.432  0.1759  0.1771  0.1042
  884S        S 7688   8.174   4.450  11.059  0.3228  0.5210  0.4896
  885S        S 7689   5.928   0.381  19.609 -0.3318  0.0949 -0.2064
  886S        S 7690   0.591   1.553  28.648  0.1699 -0.2764 -0.4452
  887S        S 7691   9.583   5.471  22.475  0.0401 -0.3414 -0.0227
  888S        S 7692   3.084   6.736  17.893  0.1610 -0.0280 -0.5007
  889S        S 7693   3.268   2.505  17.532 -0.1875  0.5151 -0.1181
  890S        S 7694  11.809   5.305  14.761  0.4929  0.6879  0.0349
  891S        S 7695   3.573  10.824  20.957  0.0687  0.0285  0.4745
  892S        S 7696   8.131   9.349  24.727 -0.0849  0.0831 -0.3113
  893S        S 7697   8.479   7.215  15.927  0.0182  0.1339 -0.2326
  894S        S 7698   9.611  11.627  18.597  0.1518  0.1831  0.0353
  895S        S 7699  10.747   6.599  19.039 -0.4007  0.4769 -0.1246
  896S        S 7700   2.290   2.102  25.244 -0.2009  0.3741  0.3175
  897S        S 7701   5.764  11.259  19.270  0.2846  0.2786 -0.3801
  898S        S 7702   5.237   4.030  16.176  0.0599 -0.2927  0.1039
  899S        S 7703   7.137   7.531  17.160 -0.1935 -0.0220  0.0600
  900S        S 7704   8.956   2.011  19.778 -0.1724 -0.3483  0.4724
  901S        S 7705   3.971   1.636  19.855 -0.1432  0.1225  0.1353
  902S        S 7706   6.417   8.762  18.886 -0.1636  0.2674  0.0667
  903S        S 7707   3.034   7.249  16.742  0.3998  0.4870 -0.3818
  904S        S 7708   2.386   1.269  13.657 -0.2710 -0.1528  0.0503
  905S        S 7709  10.157   1.413  31.910  0.2497 -0.0541  0.3083
  906S        S 7710   4.815   0.909  20.121  0.0294 -0.4382 -0.2988
  907S        S 7711   4.757  10.731  18.635 -0.0827 -0.0173 -0.2781
  908S        S 7712   1.264   9.169  17.118  0.4608 -0.4069 -0.0296
  909S        S 7713   4.591   0.051  15.859 -0.3113  0.0836 -0.0158
  910S        S 7714   0.940   5.090   5.235  0.3880 -0.3881  0.5525
  911S        S 7715  11.198   1.495  15.672 -0.0462 -0.0210  0.7408
  912S        S 7716   1.828   6.949  26.304 -0.1012  0.7455 -0.1264
  913S        S 7717   1.922   5.047  14.710 -0.0340  0.0709 -0.3032
  914S        S 7718   5.892   2.913  22.464 -0.0704  0.2078 -0.0560
  915S        S 7719   0.007  11.297  25.770  0.1519 -0.4809 -0.1333
  916S        S 7720  10.866   8.428  16.117  0.2062  0.5201  0.0570
  917S        S 7721   3.481   0.463  25.695 -0.3743 -0.2088 -0.0400
  918S        S 7722   9.398   1.104  25.305 -0.2250 -0.2982  0.1683
  919S        S 7723   5.475   5.282  15.561  0.1045  0.0865 -0.8085
  920S        S 7724   5.578  10.660  19.070  0.2573 -0.8301 -0.0670
  921S        S 7725   8.557   5.435  14.744 -0.0578  0.0484 -0.0262
  922S        S 7726   3.233   4.594  14.008 -0.1513 -0.2059  0.1621
  923S        S 7727   4.050   0.101  10.986  0.0236  0.1356 -0.1712
  924S        S 7728   2.130   4.831  25.790  0.8963 -0.2851  0.2970
  925S        S 7729   8.182   5.950  25.163  0.5070 -0.5930  0.0783
  926S        S 7730   7.630   5.206  28.831  0.4272 -0.1535 -0.3384
  927S        S 7731   0.028  12.265  26.574  0.0495 -0.1341 -0.6157
  928S        S 7732   6.238   9.926  14.135 -0.1325  0.1665  0.0586
  929S        S 7733   9.184   5.287  15.139  0.4728 -0.3264 -0.0205
  930S        S 7734   6.915   8.717  29.025  0.2455  0.2436  0.2046
  931S        S 7735   6.521   5.231  29.968 -0.0655  0.4354  0.0526
  932S        S 7736   5.153   8.632  12.454 -0.0510 -0.3770 -0.2932
  933S        S 7737   5.964   0.449  16.853 -0.2017  0.7109  0.2069
  934S        S 7738   5.590  10.622  11.443  0.1855  0.3446  0.5615
  935S        S 7739   3.749   8.017  19.159  0.5424 -0.1005 -0.2516
  936S        S 7740   9.217   7.750  13.765  0.1727  0.2708  0.1526
  937S        S 7741   8.674  10.505  25.173 -0.2186 -0.5750  0.1579
  938S        S 7742  10.532   4.745  16.633  0.0631 -0.2704 -0.1556
  939S        S 7743   2.194   9.593  19.175 -0.2514  0.9133 -0.4157
  940S        S 7744  10.362  11.283  23.125  0.1335  0.1555  0.1893
  941S        S 7745   1.319   8.311  29.884 -0.1605  0.3905 -0.2645
  942S        S 7746  11.124   0.692  13.299  0.0630 -0.1071 -0.0651
  943S        S 7747  11.436  11.936  31.732  0.5451  0.5768  0.0419
  944S        S 7748   2.112  12.247  19.596 -0.3300 -0.2282  0.2245
  945S        S 7749   0.379  11.131  26.091  0.0409 -0.0977  0.1531
  946S        S 7750   6.725   3.469  28.063  0.4509  0.0913  0.3419
  947S        S 7751   3.198   9.257  16.916 -0.1247  0.2965  0.5220
  948S        S 7752   7.446   4.355  14.698  0.3863 -0.5453 -0.3697
  949S        S 7753   2.450   6.833  22.810  0.2707  0.4266  0.2707
  950S        S 7754   9.956   6.621  16.673  0.0376 -0.0875  0.0386
  951S        S 7755   9.357   0.314  21.040 -0.1647  0.4001  0.0122
  952S        S 7756   4.472   0.935  20.524 -0.7029 -0.0290  0.3440
  953S        S 7757   0.797   6.500  21.120 -0.5479 -0.1711  0.0165
  954S        S 7758   9.599   3.108  23.084 -0.0455  0.1695  0.4421
  955S        S 7759   4.431   3.524  19.509  0.2261 -0.1478  0.2194
  956S        S 7760   2.498   9.383  17.839  0.1095  0.0034 -0.2927
  957S        S 7761   9.301   5.064   5.703 -0.3482  0.0207  0.3193
  958S        S 7762   4.031   4.679  12.420  0.0306  0.1570  0.0354
  959S        S 7763  11.752   9.406  16.315 -0.2538  0.2374 -0.6553
  960S        S 7764   9.416   1.431  24.939  0.4560  0.1428 -0.1819
  961S        S 7765  10.164   6.870  14.729  0.3741  0.2983 -0.0687
  962S        S 7766  10.131   1.101  13.379  0.0899 -0.0385  0.2864
  963S        S 7767   0.431   1.372  16.620 -0.3054 -0.1709  0.7953
  964S        S 7768   9.362  11.402  14.863  0.4682  0.0026 -0.0683
  965S        S 7769   0.992   5.885  13.910  0.3919 -0.1998 -0.4247
  966S        S 7770   8.717  11.291  28.025 -0.0984 -0.4303  0.3185
  967S        S 7771   3.807   3.060  12.475 -0.3314 -0.3278  0.2124
  968S        S 7772   4.140   5.434  13.616 -0.1117  0.0038  0.1252
  969S        S 7773   4.982  11.890  14.338 -0.6993 -0.2036 -0.0739
  970S        S 7774   0.378  12.131  15.350  0.4828 -0.5019  0.6192
  971S        S 7775   4.381  10.833  11.484  0.3922 -0.1485 -0.0416
  972S        S 7776   0.607   0.550  19.798 -0.0687 -0.7151 -0.2947
  973S        S 7777  11.875   8.013  13.972  0.5327 -0.7638 -0.1562
  974S        S 7778  11.720   5.121  18.970  0.0270  0.0651  0.3380
  975S        S 7779  11.686   4.451  15.924 -0.3659  0.5201  0.0497
  976S        S 7780   4.177   6.832  14.220  0.2132  0.1013 -0.4036
  977S        S 7781   6.616   9.327  31.799 -0.2640  0.0516  0.6495
  978S        S 7782   5.809   7.026  30.027  0.3376  0.1669 -0.5848
  979S        S 7783   7.854   2.754  29.656 -0.0120  0.0469 -0.2382
  980S        S 7784   4.280   8.638  27.494  0.0350  0.5687 -0.0469
  981S        S 7785   4.844   5.830  19.836 -0.1734 -0.4614 -0.1269
  982S        S 7786  10.700   5.217  18.665  0.0723  0.4121  0.0796
  983S        S 7787  11.735   6.489  19.191  0.0192  0.0438  0.2999
  984S        S 7788   6.264   2.221  18.219 -0.7404  0.1025 -0.4972
  985S        S 7789   8.984   9.953  21.761 -0.3396  0.2176  0.4015
  986S        S 7790  12.316   4.511  23.486 -0.1938 -0.1044 -0.4171
  987S        S 7791   0.231   8.343  16.000  0.0571  0.2090 -0.4164
  988S        S 7792   3.565  10.375  12.991  0.3906 -0.0843 -0.5344
  989S        S 7793   5.043   5.312  12.547  0.1442 -0.0271 -0.1310
  990S        S 7794   6.791   8.057  22.903 -0.2001 -0.0642 -0.2672
  991S        S 7795   5.359   3.835  25.953 -0.2101  0.3966  0.0174
  992S        S 7796  11.370  11.304  20.058 -0.1846 -0.0940 -0.2796
  993S        S 7797   5.816  10.108  22.347  0.5675  0.1483  0.1651
  994S        S 7798   2.330   9.871  24.185  0.1697 -0.2785 -0.2378
  995S        S 7799   1.767   5.952  16.326  0.2589  0.0080  0.0396
  996S        S 7800   2.801   2.180  22.621  0.0178 -0.1019 -0.3691
  997S        S 7801   3.871   6.278  17.472 -0.5918 -0.1253 -0.2836
  998S        S 7802   0.846   6.123  24.085 -0.2038 -0.4863  0.3499
  999S        S 7803  10.040   0.973  26.578  0.1379 -0.0102 -0.1045
 1000S        S 7804   0.675   2.027  27.783 -0.0127  0.3676 -0.0445
 1001S        S 7805   8.560  11.345  22.898  0.4997  0.1521 -0.0361
 1002S        S 7806   4.461   6.853  18.203  0.0283 -0.4561 -0.0643
 1003S        S 7807  12.330   1.012  12.462  0.0138 -0.2792  0.3410
 1004S        S 7808  10.215   7.214  28.447  0.1207 -0.2354  0.0263
 1005S        S 7809   3.031   9.736  26.163  0.0256  0.2456  0.2591
 1006S        S 7810   4.081   3.916  27.344 -0.0220  0.1146  0.0123
 1007S        S 7811  11.706   8.425  23.985 -0.0506  0.0057 -0.0628
 1008S        S 7812   3.087  11.640  30.288  0.0568  0.2121 -0.4842
 1009S        S 7813   9.862   0.641  18.252  0.5727 -0.0478 -0.0902
 1010S        S 7814   0.954  12.094  15.871  0.0252 -0.0892  0.1619
 1011S        S 7815   9.882   0.692  18.801 -0.2416 -0.1571 -0.5622
 1012S        S 7816   6.521   9.341  27.709 -0.1504 -0.2142 -0.4086
 1013S        S 7817   9.929   1.019  15.472 -0.2344 -0.0642  0.2396
 1014S        S 7818   6.226   9.432  12.049  0.0216 -0.0871  0.1007
 1015S        S 7819   4.214   6.502  17.885  0.2342 -0.0916 -0.2077
 1016S        S 7820   9.234  10.630  22.928 -0.1143 -0.2733  0.7058
 1017S        S 7821   8.190   5.408  11.437  0.3687  0.2997  0.0518
 1018S        S 7822  11.664   5.025  31.136  0.3707  0.1965  0.2224
 1019S        S 7823   1.573   6.178  12.770 -0.7005  0.1643  0.2349
 1020S        S 7824   9.614   9.164  28.928 -0.3821  0.2074 -0.3658
 1021S        S 7825   1.059   5.431  14.566  0.2855 -0.1555 -0.2406
 1022S        S 7826   6.418   2.886  26.078 -0.1866 -0.2478 -0.1535
 1023S        S 7827  11.179   8.199  24.270  0.0443 -0.0433  0.1568
 1024S        S 7828   5.310   6.264  26.232 -0.1598  0.4355  0.1378
 1025S        S 7829  11.502   4.101  22.462 -0.1863 -0.1909  0.0825
 1026S        S 7830   9.278   5.122  19.334  0.1212  0.0454 -0.2229
 1027S        S 7831   3.455  11.439  15.669  0.2088  0.2514  0.2037
 1028S        S 7832   2.052   2.161  26.312  0.2566 -0.2326  0.5110
 1029S        S 7833   4.268   7.556  12.634  0.4395 -0.2516  0.3583
 1030S        S 7834   1.366   7.372  30.755 -0.6207  0.0372 -0.6508
 1031S        S 7835   4.676  10.684  14.870  0.1920  0.0136 -0.1400
 1032S        S 7836   4.515   7.612  28.662  0.3217  0.1418 -0.3429
 1033S        S 7837   5.600  11.330  13.173  0.3040  0.0214  0.4401
 1034S        S 7838  10.938   0.109  19.046  0.5142  0.3470 -0.3636
 1035S        S 7839   8.152   7.887  27.022 -0.2997  0.1251 -0.2941
 1036S        S 7840   2.986   8.657  48.107 -0.2300 -0.0842  0.7991
 1037S        S 7841   7.022   3.183  14.356  0.2480 -0.3884 -0.7000
 1038S        S 7842   6.692   9.341  22.231 -0.8125 -0.2400 -0.0971
 1039S        S 7843   0.405   5.844  35.707 -0.0621  0.0049  0.2484
 1040S        S 7844   1.303   7.884  22.582 -0.0385  0.8674  0.2102
 1041S        S 7845   1.401   9.403  23.280 -0.5110 -0.0792  0.2904
 1042S        S 7846   8.301   6.590  22.723  0.1011 -0.1921  0.3453
 1043S        S 7847   1.028   9.708  27.007  0.2072 -0.6074  0.0126
 1044S        S 7848  10.090   4.936  12.246 -0.2580 -0.2592 -0.2396
 1045S        S 7849  10.845   2.902  27.222 -1.0247 -0.0573  0.5287
 1046S        S 7850   5.584  11.373  23.922 -0.2074 -0.2291  0.1871
 1047S        S 7851   8.948   2.879  20.188  0.2097 -0.2059  0.2221
 1048S        S 7852   6.460   1.727  23.918 -0.1709 -0.2281 -0.4719
 1049S        S 7853   5.216   0.226  22.271  0.5678  0.2464  0.0359
 1050S        S 7854   0.965   3.609  30.408  0.0742 -1.0195  0.1751
 1051S        S 7855   7.624   2.146  26.227  0.0031 -0.0906 -0.2081
 1052S        S 7856   6.588   2.318  29.004 -0.1569  0.5236 -0.3419
 1053S        S 7857   9.655   0.683  26.897  0.2350 -0.2359 -0.1330
 1054S        S 7858  12.125   8.237  14.469  0.6519  0.4793 -0.0278
 1055S        S 7859  11.975   9.339  24.147  0.2520 -0.7664 -0.0139
 1056S        S 7860   8.877   3.958  15.555  0.0229 -0.0861  0.3261
 1057S        S 7861   9.311   5.717  19.967 -0.1852 -0.3018 -0.3663
 1058S        S 7862   4.999   4.999  20.722 -0.2470  0.6686  0.6099
 1059S        S 7863   2.307   3.661  18.290 -0.1832  0.2672 -0.0403
 1060S        S 7864  12.006  12.134  29.954  0.0534  0.3763 -0.0488
 1061S        S 7865   8.862   4.248  24.734 -0.0744  0.4676  0.3525
 1062S        S 7866   2.562   7.634  25.091  0.4754  0.1890  0.1243
 1063S        S 7867   1.461  10.447  13.342  0.0257  0.1126  0.3417
 1064S        S 7868   3.245   3.795  23.687  0.3423  0.2452  0.1157
 1065S        S 7869   0.864   6.925  16.771  0.4102 -0.4670 -0.2846
 1066S        S 7870   5.543   3.078  26.600  0.1450 -1.1094  0.2182
 1067S        S 7871   0.473   8.850  16.619 -0.0872  0.1903  0.0602
 1068S        S 7872   4.350   6.759  29.251  0.0549 -0.5279 -0.1521
 1069S        S 7873   0.234  11.707  45.301 -0.0597 -0.2627 -0.0319
 1070S        S 7874   1.970  10.976  22.503  0.0106  0.0901 -0.0021
 1071S        S 7875   0.493   9.870  22.767  0.3942 -0.3960 -0.4743
 1072S        S 7876   5.414   9.905  28.587 -0.7504 -0.1191 -0.0250
 1073S        S 7877  11.601   4.337  25.850 -0.4965  0.6556  0.7436
 1074S        S 7878   3.406   6.536  20.669  0.1101  0.1253 -0.0935
 1075S        S 7879   0.728   2.982  25.569 -0.6017 -0.0924 -0.2567
 1076S        S 7880  10.719   0.920  19.737 -0.2793  0.0505 -0.0056
 1077S        S 7881   0.962   8.765  28.149  0.1541  0.0196 -0.2806
 1078S        S 7882   7.505   0.251  14.390 -0.2819 -0.4845 -0.1551
 1079S        S 7883   4.083   7.025  25.287 -0.0730 -0.2864  0.7634
 1080S        S 7884   5.458   2.788  24.406  0.5113 -0.1900 -0.2490
 1081S        S 7885   9.586   2.745  19.635  0.6776  0.2174  0.2983
 1082S        S 7886   8.434  10.093  29.379  0.0455 -0.0848  0.2132
 1083S        S 7887   4.153   0.188  23.352 -0.6335 -0.1746 -0.4379
 1084S        S 7888   7.720   0.056  24.954 -0.0336  0.1493 -0.0225
 1085S        S 7889   7.565   5.379  21.733  0.5248 -0.1590  0.5243
 1086S        S 7890   0.579   9.862  24.516  0.4305  0.5480 -0.3644
 1087S        S 7891   6.195   4.812  25.727 -0.2338 -0.0824 -0.0131
 1088S        S 7892  10.226  10.781  25.998  0.7939  0.0317  0.0979
 1089S        S 7893   5.301   1.063  29.994 -0.7834  0.0131  0.0322
 1090S        S 7894   9.329  12.130  27.963  0.2485 -0.4888  0.2954
 1091S        S 7895  11.374  10.579  11.875 -0.2630 -0.2187 -0.6593
 1092S        S 7896   9.029  12.151  29.496 -0.7066  0.5387 -0.0820
 1093S        S 7897  11.101   1.848  20.458 -0.8560  0.0593 -0.1582
 1094S        S 7898   3.340   6.661  13.366  0.2718 -0.4163  0.1089
 1095S        S 7899   8.962   2.196  19.190 -0.3467 -0.2828  0.1097
 1096S        S 7900  12.043  10.295  13.381 -0.5603 -0.1847  0.0344
 1097S        S 7901   0.160   5.510  22.148  0.2704 -0.3113 -0.0268
 1098S        S 7902   8.680   8.824  24.778  0.0684 -0.0825  0.4298
 1099S        S 7903   8.694   4.539  16.590  0.0143 -0.1994 -0.2743
 1100S        S 7904   8.172   8.512  28.105 -0.1841  0.3500 -0.6590
 1101S        S 7905   4.924   4.690  25.796 -0.0372 -0.2159  0.4646
 1102S        S 7906   0.305   4.369  30.255  0.2913  0.3260  0.2374
 1103S        S 7907   0.587   3.389  19.891 -0.2754 -0.4338  0.4224
 1104S        S 7908   0.325  12.283  24.131  0.2543  0.3257  0.4258
 1105S        S 7909   0.010   2.901  11.882  0.4759  0.2016  0.3599
 1106S        S 7910  11.463   8.595  10.917 -0.2586 -0.2611 -0.1164
 1107S        S 7911   8.016   8.469  25.348 -0.2212  0.8428 -0.0782
 1108S        S 7912  10.884   9.071  17.745  0.2342  0.2483  0.2041
 1109S        S 7913   2.757   2.874  11.959 -0.1305 -0.4479 -0.0519
 1110S        S 7914   8.112   1.950  27.459  0.0760 -0.0210  0.5411
 1111S        S 7915  11.031  11.988  14.442 -0.3575 -0.0035 -0.4602
 1112S        S 7916   9.058  10.795  16.988  0.3362  0.2132  0.1293
 1113S        S 7917   2.887   2.492  12.699  0.0395 -0.4118 -0.2416
 1114S        S 7918  12.188  10.479  20.987  0.4277 -0.5382  0.7839
 1115S        S 7919  11.922   6.093  17.594 -0.2495 -0.0257  0.1884
 1116S        S 7920   5.638   5.270  16.044 -0.3371  0.3461  0.0832
 1117S        S 7921   8.452   3.645  28.225 -0.3144 -0.3786  0.4967
 1118S        S 7922   6.711   4.666  19.794  0.2313  0.0536  0.3878
 1119S        S 7923   5.655  10.477  13.301  0.4516 -0.3046  0.3336
 1120S        S 7924  11.558   2.685   7.538 -0.2338 -0.0706  0.3125
 1121S        S 7925   2.450   4.519  19.672  0.1118 -0.0484 -0.4520
 1122S        S 7926   1.791   5.295  27.264 -0.0212 -0.5528  0.2689
 1123S        S 7927  11.617  10.046  20.356 -0.2387 -0.3318  0.2287
 1124S        S 7928   4.654   1.830  11.778 -0.0318  0.4353 -0.3532
 1125S        S 7929   6.175   5.572  38.003  0.4804  0.1554  1.4033
 1126S        S 7930   7.090   6.047  18.155  0.0462  0.2703  0.4440
 1127S        S 7931   8.584  12.267  16.976 -0.0214  0.4114 -0.5434
 1128S        S 7932   4.685   1.507  12.500  0.0599 -0.3230 -0.2871
 1129S        S 7933   5.119   1.188  15.246  0.3062  0.5639 -0.0998
 1130S        S 7934  11.786   9.647  12.311 -0.2632 -0.5908 -0.0275
 1131S        S 7935   8.536   7.738  22.351 -0.3196 -0.1779  0.3693
 1132S        S 7936   2.765   2.423  19.691  0.3417  0.0452  0.3336
 1133S        S 7937   4.054   7.344  30.573 -0.0604  0.3120  0.3558
 1134S        S 7938   3.740   6.092  24.655  0.2627  0.1032  0.2283
 1135S        S 7939   1.544  10.458  17.478  0.1618 -0.0868  0.1093
 1136S        S 7940   3.297   1.487  23.826 -0.0081  0.3324 -0.2157
 1137S        S 7941   7.513   4.833  20.991 -0.3676  0.3036 -0.0736
 1138S        S 7942   6.847   9.274  17.891  0.1822 -0.2416  0.1810
 1139S        S 7943   5.711  11.683  12.243 -0.0659 -0.2698  0.0988
 1140S        S 7944   7.341  10.383  27.897 -0.3364 -0.1865 -0.4330
 1141S        S 7945   2.217   0.422  26.487  0.4089  0.1221 -0.3004
 1142S        S 7946  10.009   8.681  30.368 -0.3588  0.0094 -0.2332
 1143S        S 7947   4.538   2.555  22.736  0.3842 -0.1068  0.0696
 1144S        S 7948   9.291   0.533  18.037  0.5280  0.2798 -0.1866
 1145S        S 7949   5.501   4.819  12.411 -0.3049  0.3845 -0.0285
 1146S        S 7950   2.576   4.191  27.439 -0.2582 -0.0050  0.0858
 1147S        S 7951   3.804   6.360   5.323 -0.1323 -0.1020 -0.0171
 1148S        S 7952   1.957   2.001  31.809  0.5999 -0.0069  0.6099
 1149S        S 7953   5.889   9.250  15.597  0.1081  0.1415  0.5672
 1150S        S 7954   9.786   2.934  24.004  0.6100  0.7457 -0.6182
 1151S        S 7955   8.649   6.731  25.606 -0.3662  0.2103 -0.0216
 1152S        S 7956   1.618  10.722  14.960 -0.3521  0.3161  0.3584
 1153S        S 7957   8.186   0.047  26.586  0.0399 -0.0708  0.2549
 1154S        S 7958   5.570   4.946  14.229  0.2108  0.1649 -0.1014
 1155S        S 7959   8.269   6.365  17.198 -0.2741  0.3499 -0.0189
 1156S        S 7960   1.627  10.823  28.527 -0.0446  0.6535 -0.1368
 1157S        S 7961   0.547  11.987  17.207 -0.0918  0.1097 -0.2732
 1158S        S 7962   4.419   2.336  21.331  0.3871  0.0039 -0.1906
 1159S        S 7963   2.426   1.587  18.558  0.0760  0.0241 -0.1401
 1160S        S 7964   5.664   3.928  19.088 -0.2781 -0.2164  0.0035
 1161S        S 7965   3.305   3.493  24.198  0.4735  0.0344  0.9060
 1162S        S 7966   1.091   9.527  16.696  0.1324 -0.2344 -0.1914
 1163S        S 7967  10.736   7.988  19.243 -0.0069 -0.1982 -0.1483
 1164S        S 7968   1.116   8.415  22.183  0.5000 -0.1117 -0.5970
 1165S        S 7969   3.295   1.602  14.876 -0.3139  0.3613 -0.5186
 1166S        S 7970  10.139  10.997  27.107 -0.5702 -0.4310  0.6427
 1167S        S 7971   6.976   5.216  23.647 -0.4455  0.0215 -0.5170
 1168S        S 7972   5.088   8.524  14.785  0.2202 -0.0881  0.1405
 1169S        S 7973  10.011   4.335  19.542  0.0810  0.3722  0.0869
 1170S        S 7974   8.168   3.580  20.151 -0.1090 -0.5547  0.4155
 1171S        S 7975   8.288   7.838  15.879  0.1022 -0.1714  0.1791
 1172S        S 7976   0.981   2.518  29.163 -0.2379  0.1353  0.4089
 1173S        S 7977  11.701   1.076  21.667  0.5728  0.5352  0.0208
 1174S        S 7978   6.823  11.798  12.894 -0.2668  0.3714 -0.4667
 1175S        S 7979   5.264  10.961  20.478 -0.0521 -0.5179 -0.3874
 1176S        S 7980   1.802  10.643  12.431  0.2063 -0.5029  0.3183
 1177S        S 7981  11.319   3.365  23.178 -0.1409  0.0870 -0.3270
 1178S        S 7982   4.077   1.979  11.815 -0.1592 -0.0023  0.0003
 1179S        S 7983   1.998   1.051  19.488 -0.0435 -0.5169 -0.1236
 1180S        S 7984   7.400   4.233  28.413  0.6433 -0.3247 -0.0680
 1181S        S 7985   9.209   8.877  19.896  0.0989  0.3037  0.1076
 1182S        S 7986   8.365   4.733   8.769  0.0144 -0.0882  0.0801
 1183S        S 7987   9.315   4.114  16.496  0.2408 -0.0406 -0.3295
 1184S        S 7988   4.342   6.205  25.941  0.0084  0.1649  0.2758
 1185S        S 7989   8.517  11.288  11.571  0.1551  0.3160 -0.3304
 1186S        S 7990   3.647   5.914  19.226  0.1713 -0.2484 -0.0483
 1187S        S 7991  10.775  11.246  30.964  0.3860 -0.4517  0.1338
 1188S        S 7992   6.694   6.899  29.644  0.6352  0.2738  0.2592
 1189S        S 7993  11.261  11.105  24.607  0.4760  0.0120  0.3893
 1190S        S 7994   2.586   0.611  28.161 -0.1787 -0.3305 -0.2068
 1191S        S 7995   9.156  10.896  26.336  0.6365  0.6217 -0.1181
 1192S        S 7996   6.586   6.242  20.357 -0.4408 -0.0513 -0.1737
 1193S        S 7997  10.639   1.651  22.114  0.2407  0.1156 -0.2014
 1194S        S 7998  10.228   3.880  27.773 -0.0937 -0.2425 -0.0214
 1195S        S 7999  11.771  11.376  14.808 -0.0853  0.1542 -0.3792
 1196S        S 8000   7.659   3.552  12.703  0.2868  0.1382 -0.1252
 1197S        S 8001   6.298   2.170  15.850  0.5721 -0.5704 -0.1335
 1198S        S 8002  10.404   5.120  25.676  0.1649 -0.3299 -0.3564
 1199S        S 8003   9.900   9.933  12.896 -0.2076 -0.1447  0.3173
 1200S        S 8004   9.371   4.855  24.211  0.0736 -0.2274  0.1016
 1201S        S 8005  10.956   1.693  24.108  0.2963 -0.5467  0.6248
 1202S        S 8006   3.216   6.032  23.543  0.3705 -0.2077  0.3424
 1203S        S 8007   3.197   8.403  28.339 -0.4812 -0.1516  0.0075
 1204S        S 8008   0.556   5.277  27.126  0.3974 -0.2772  0.5089
 1205S        S 8009   1.876   2.850  18.605 -0.3819  0.1028  0.4916
 1206S        S 8010   0.800   4.019  15.463  0.3171 -0.1011  0.1022
 1207S        S 8011   6.053   5.661  29.865 -0.4863 -0.4823 -0.1676
 1208S        S 8012   2.361   5.139  16.657 -0.2928  0.1579  0.0555
 1209S        S 8013   4.041   5.227  12.020  0.2653  0.3577  0.3101
 1210S        S 8014  12.231   5.106  20.862 -0.0809 -0.2170  0.0497
 1211S        S 8015   6.421   7.859  21.520 -0.1236 -0.3617 -0.0395
 1212S        S 8016   5.969   7.080  26.296  0.2480 -0.1657  0.1473
 1213S        S 8017   4.556  10.713  16.372 -0.3356 -0.1260  0.0264
 1214S        S 8018   7.137   7.181  26.635 -0.1251  0.1230  0.5039
 1215S        S 8019  11.004   6.524  27.765  0.1809  0.0275  0.6264
 1216S        S 8020   6.173   3.517  21.279  0.1009 -0.2087  0.1104
 1217S        S 8021  11.792   3.840  18.175  0.1384  0.0279  0.2131
 1218S        S 8022   9.624   1.922  27.963  0.0275  0.6688  0.1636
 1219S        S 8023   6.128   0.213  17.921 -0.1382 -0.1961  0.4528
 1220S        S 8024   2.089  10.591  27.395 -0.4504  0.1384  0.0389
 1221S        S 8025   8.148   8.223  18.137  0.5629  0.5145 -0.0604
 1222S        S 8026  11.268   4.007  18.676  0.0706  0.0196 -0.2789
 1223S        S 8027  11.866   1.020  20.154 -0.3605  0.2376 -0.5850
 1224S        S 8028   3.560   0.793  24.423  0.3665  0.1268 -0.5172
 1225S        S 8029   9.488   6.163  20.181 -0.1388 -0.1858  0.6475
 1226S        S 8030   4.029   6.300   4.885  0.1380 -0.5785  0.2665
 1227S        S 8031   8.095   4.338  13.541 -0.3560  0.1297  0.2466
 1228S        S 8032   8.362   1.339  26.096  0.1044  0.1508  0.2407
 1229S        S 8033   5.417  11.419  28.135 -0.0892 -0.2396 -0.0201
 1230S        S 8034  10.300   5.796  24.477 -0.2822 -0.4285 -0.1060
 1231S        S 8035   6.749  11.842  29.789  0.0575  0.0403  0.1761
 1232S        S 8036   4.317   9.134   5.222  0.1717 -0.2869  0.2634
 1233S        S 8037   9.465   6.549  25.043  0.0201  0.9759 -0.1277
 1234S        S 8038   5.122   0.945  11.225 -0.0585  0.3126  0.1529
 1235S        S 8039   6.908   2.741  20.446 -0.0110 -0.5292 -0.0310
 1236S        S 8040   9.376   4.347  20.585 -0.2412 -0.4216 -0.1649
 1237S        S 8041   4.039  10.916  18.852 -0.1029  0.5488  0.4468
 1238S        S 8042   0.585   0.082  18.714 -0.2045  0.0006  0.4098
 1239S        S 8043   9.322   3.611  14.633 -0.1965 -0.0125  0.1614
 1240S        S 8044  10.698   9.716  26.128  0.0310  0.1405 -0.0620
 1241S        S 8045   3.963   9.410  22.398  0.3857 -0.1077 -0.3990
 1242S        S 8046   0.115   4.962  12.283 -0.2767  0.0444 -0.4223
 1243S        S 8047   2.023   1.069  12.211  0.4515 -0.6399  0.0300
 1244S        S 8048  11.864   9.932  13.083 -0.2371 -0.2294 -0.1927
 1245S        S 8049  11.163   4.378  16.103  0.0804 -0.5164 -0.3579
 1246S        S 8050   9.319  10.330  30.619 -0.2835  0.0486  0.4448
 1247S        S 8051   7.285   1.052  18.860  0.0878  0.2631 -0.1054
 1248S        S 8052   3.576   2.615  31.166  0.3046 -0.3805  0.3240
 1249S        S 8053  11.222   2.397  26.383  0.0652 -0.1949 -0.0922
 1250S        S 8054   2.681  11.063  19.542  0.6294 -0.3800 -0.0257
 1251S        S 8055   6.577   8.665  21.011 -0.0465  0.0748 -0.2293
 1252S        S 8056  11.479   4.216  19.097 -0.3931  0.1945  0.4631
 1253S        S 8057   3.109   1.984  20.679  0.4250  0.1777  0.1268
 1254S        S 8058   7.193   1.603  17.605  0.5258 -0.0173  0.3480
 1255S        S 8059   6.790   5.066  12.773  0.0892 -0.0718  0.0250
 1256S        S 8060  12.147   1.121  17.490 -0.0166 -0.0327  0.0590
 1257S        S 8061   2.006  10.134  28.680 -0.0241  0.3342  0.4660
 1258S        S 8062   2.661   3.584  29.446  0.2427  0.0308  0.0921
 1259S        S 8063   6.818   6.076  16.077  0.0117 -0.0760 -0.0506
 1260S        S 8064   5.950   4.104  21.423 -0.0242 -0.3692 -0.2530
 1261S        S 8065  11.549   7.728  18.644 -0.0881  0.2838  0.1222
 1262S        S 8066  10.730  10.431  14.897 -0.3294  0.5499 -0.0823
 1263S        S 8067   8.136  11.609  13.594 -0.3318  0.3110  0.2316
 1264S        S 8068   7.565  11.048  30.420 -0.4314  0.1038  0.5045
 1265S        S 8069   2.794   5.315  14.619 -0.0561  0.1531  0.1618
 1266S        S 8070   1.434   4.437  19.421 -0.1492  0.0668 -0.2616
 1267S        S 8071   9.371   8.884  18.617 -0.2209  0.1061 -0.3647
 1268S        S 8072   0.078  10.351  24.158  0.5705 -0.3573  0.3225
 1269S        S 8073   6.396   5.447  21.078  0.0122  0.3897  0.4745
 1270S        S 8074   9.048  10.481  14.593  0.0457  0.1716  0.1008
 1271S        S 8075   6.649   5.659  27.954  0.2768 -0.2332 -0.2371
 1272S        S 8076   0.389   3.935  25.653  0.0027  0.2789 -0.2814
 1273S        S 8077  11.167  10.306  15.196 -0.0218  0.0783 -0.2670
 1274S        S 8078  10.638   1.172  31.993 -0.0083  0.0078 -0.1906
 1275S        S 8079   1.373   8.786  29.727  0.7253  0.3502  0.2899
 1276S        S 8080   5.500   7.431  18.241 -0.3704  0.0659  0.4029
 1277S        S 8081  10.421   5.334  32.183 -0.0563  0.1668 -0.0313
 1278S        S 8082   4.512  12.279  28.515  0.2775 -0.0889  0.2416
 1279S        S 8083   1.832  11.081  13.775 -0.0976 -0.5387  0.0890
 1280S        S 8084  11.194  11.988  13.534  0.1665 -0.1233 -0.0942
 1281S        S 8085  12.068   7.882  18.547 -0.0837 -0.2638  0.2974
 1282S        S 8086   1.467   4.144  31.477  0.0125 -0.3842  0.3382
 1283S        S 8087   3.782   2.659  47.004 -0.0949 -0.2398  0.0398
 1284S        S 8088   0.789   8.920  18.322 -0.1790 -0.1766 -0.0745
 1285S        S 8089   0.670   3.478  29.846 -0.0231  0.3999  0.0359
 1286S        S 8090   3.992  12.328  20.707  0.3100 -0.8417 -0.2797
 1287S        S 8091   2.983   0.459  21.014 -0.1862  0.4612 -0.2348
 1288S        S 8092   8.836   6.365  22.650 -0.0409 -0.8644 -0.0819
 1289S        S 8093   8.216  10.288  24.499 -0.6851 -0.0620 -0.0921
 1290S        S 8094   8.013   5.120  25.278 -0.7015 -0.1688  0.3431
 1291S        S 8095   4.916   7.029  17.481 -0.0201  0.5053  0.0965
 1292S        S 8096   8.896   1.130  14.061 -0.1887 -0.0240  0.1992
 1293S        S 8097   6.794   3.865  19.453 -0.3353 -0.0883 -0.1556
 1294S        S 8098  12.289   3.604  26.017 -0.1933  0.0067  0.1107
 1295S        S 8099   9.208   8.872  15.376 -0.3369 -0.0877  0.4109
 1296S        S 8100   0.391   4.737  23.970  0.1491 -0.2458  0.0353
 1297S        S 8101  11.953  10.783  13.477  0.5635  0.0589  0.0827
 1298S        S 8102  11.399  11.328  31.611 -0.1085  0.6487  0.0762
 1299S        S 8103  10.218  10.339  17.670  0.1799  0.0408 -0.5151
 1300S        S 8104  11.651   0.527  21.664 -0.2575  0.2201 -0.1243
 1301S        S 8105   6.614   3.379  15.328  0.0157  0.5090  0.2632
 1302S        S 8106   2.278   1.225  14.263  0.3971  0.1794 -0.6325
 1303S        S 8107   1.188  10.928  19.177  0.0787 -0.2986 -0.4737
 1304S        S 8108   3.986  11.556  24.708  0.1028  0.3737 -0.8288
 1305S        S 8109   9.626  12.047  17.665 -0.2619 -0.2626 -0.1092
 1306S        S 8110  10.515   0.503  13.390  0.2145 -0.0833  0.0381
 1307S        S 8111   8.266   4.037  22.564  0.0359 -0.2340  0.2944
 1308S        S 8112   9.032   4.426  16.985 -0.6076 -0.2068 -0.2030
 1309S        S 8113   2.774  10.545  18.357  0.1216 -0.0113 -0.4184
 1310S        S 8114  11.433  11.704  16.777  0.1305 -0.3331  0.1055
 1311S        S 8115  10.263   9.220  19.777 -0.1284 -0.1749  0.4087
 1312S        S 8116  12.348   7.100  26.141  0.1947  0.1018  0.1902
 1313S        S 8117   5.995   2.513  24.579  0.2201  0.0819 -0.4563
 1314S        S 8118  12.028  11.771  21.996 -0.1833 -0.1434  0.2465
 1315S        S 8119   8.820  10.904  24.933 -0.9664 -0.1333 -0.1688
 1316S        S 8120   0.671   5.464  20.344  0.3264 -0.0122 -0.1886
 1317S        S 8121  10.833   7.063  28.813  0.5496  0.2198 -0.3042
 1318S        S 8122   7.836  10.623  20.524  0.1388 -0.0294  0.3232
 1319S        S 8123   3.006   2.939  25.878  0.1414  0.4959  0.0914
 1320S        S 8124   2.260  11.635  19.332 -0.2746 -0.1560  0.2002
 1321S        S 8125   9.240   1.514  31.154  0.5774  0.1951 -0.5075
 1322S        S 8126   7.355   5.977  11.740  0.2036  0.0070 -0.5206
 1323S        S 8127   4.544   6.243  28.810  0.2208  0.0471 -0.2368
 1324S        S 8128   1.132   2.226  12.718 -0.0037  0.3768  0.3606
 1325S        S 8129   1.806  12.201  29.934 -0.4677  0.5921 -0.2719
 1326S        S 8130  11.679   3.825  24.574  0.2561 -0.3146 -0.2871
 1327S        S 8131   9.762  11.165  15.455 -0.0075  0.0620 -0.0239
 1328S        S 8132   3.591   9.789  26.225  0.1951 -0.1822  0.6648
 1329S        S 8133   5.641  10.801  23.978  0.4221  0.1185 -0.2335
 1330S        S 8134   4.148   3.373  11.808 -0.4018  0.2655  0.3133
 1331S        S 8135   3.142   3.452  12.997  0.1272 -0.0209 -0.1420
 1332S        S 8136   4.124   1.768  16.645 -0.0491  0.1908  0.0240
 1333S        S 8137   8.990   3.351  30.751 -0.0899  0.5940 -0.0230
 1334S        S 8138   6.932   5.923  24.658  0.1792 -0.1288  0.2684
 1335S        S 8139   5.283   8.310  13.871  0.3107 -0.5180 -0.1375
 1336S        S 8140   9.238   4.329  23.025  0.1468  0.1653  0.0607
 1337S        S 8141   4.807   0.023  27.286 -0.1683  0.2635 -0.3730
 1338S        S 8142  11.565   6.908  14.040  0.8221  0.1998  0.2216
 1339S        S 8143   6.897   6.991  27.726 -0.1846 -0.1056  0.0799
 1340S        S 8144   6.304   6.454  23.884 -0.3831 -0.1332 -0.3178
 1341S        S 8145   9.150   0.738  11.850  0.2458  0.3049  0.4926
 1342S        S 8146   3.673   8.995  21.465  0.0126  0.1517  0.4063
 1343S        S 8147   2.265   0.764  27.754  0.1453  0.0335 -0.1259
 1344S        S 8148   2.524  12.037  23.817 -0.2261  0.0011 -0.4557
 1345S        S 8149  10.530   7.121  19.559  0.1573  0.0833  0.7389
 1346S        S 8150  11.714   3.277  30.009  0.5780  0.5161  0.2669
 1347S        S 8151   9.537   5.999  23.260  0.1449  0.3114 -0.0950
 1348S        S 8152  10.920   3.952  13.079 -0.0587 -0.5002  0.4197
 1349S        S 8153   7.373   9.712  14.833 -0.2945  0.2930  0.4098
 1350S        S 8154   3.714  10.487  31.307 -0.2688 -0.3023 -0.4167
 1351S        S 8155  10.308   3.896  25.096  0.0128 -0.3012  0.1350
 1352S        S 8156  11.303   9.204  14.890 -0.0230  0.3450  0.2798
 1353S        S 8157   9.515   3.334  20.767 -0.4798  0.0874  0.0433
 1354S        S 8158  11.678   0.837  22.511  0.3420 -0.6151 -0.4088
 1355S        S 8159   4.859   4.922  29.090 -0.1952 -0.0978 -0.2375
 1356S        S 8160  11.449   9.908  14.073  0.1083  0.3874 -0.1377
 1357S        S 8161   3.849  11.558  23.723  0.1341 -0.0607  0.3675
 1358S        S 8162   9.489   6.413  15.387  0.5439  0.0132  0.0361
 1359S        S 8163   1.554  12.210  15.184  0.1411 -0.3103 -0.0803
 1360S        S 8164   1.590   5.161  26.812  0.0161 -0.0171  0.3778
 1361S        S 8165   1.542  10.952  15.428  0.1050  0.2151  0.0202
 1362S        S 8166   9.537   0.682  24.353  0.0495  0.2376 -0.1393
 1363S        S 8167   5.030   0.335  35.330 -0.1842  0.7260  0.5071
 1364S        S 8168  10.313   7.582  12.091 -0.2459  0.3358 -0.2141
 1365S        S 8169  11.969   0.160  18.312 -0.0262 -0.1190 -0.6374
 1366S        S 8170  11.357  11.002  17.324 -0.3945 -0.0180 -0.2106
 1367S        S 8171   9.868   7.392  25.786 -0.0790 -0.5405  0.4748
 1368S        S 8172   9.434   2.409  18.359 -0.4962 -0.3608  0.2534
 1369S        S 8173   4.223  11.613  14.953  0.1536  0.5403  0.0286
 1370S        S 8174  10.500   5.601  19.758 -0.3531 -0.1757  0.3397
 1371S        S 8175   9.431   9.773  48.466 -0.0614  0.0324  0.3641
 1372S        S 8176   3.478   7.177  13.678 -0.2379 -0.2344 -0.1820
 1373S        S 8177  11.682   6.947  16.832 -0.1045 -0.0455 -0.1188
 1374S        S 8178   5.596   2.197  14.816 -0.0590 -0.0328 -0.0268
 1375S        S 8179   0.121   2.917  25.324  0.0708  0.0928  0.0400
 1376S        S 8180   7.901   2.851  18.377 -0.6591 -0.3541  0.1604
 1377S        S 8181  10.607  10.490  25.708 -0.6162  0.2509 -0.3121
 1378S        S 8182   1.073  11.558  22.320  0.2918  0.2317 -0.0617
 1379S        S 8183   1.493   9.785  25.930  0.7063  0.1261  0.3328
 1380S        S 8184   9.568   7.784  25.501 -0.2529 -0.1594  0.2839
 1381S        S 8185  10.561   1.792  30.571  0.2272 -0.0532 -0.5876
 1382S        S 8186   7.792   5.428  16.011 -0.1017  0.3390  0.1890
 1383S        S 8187   8.426   2.665  28.101 -0.2492 -0.1748 -0.1766
 1384S        S 8188  11.359   2.981  26.239 -0.0170 -0.3906  0.1595
 1385S        S 8189   2.270   6.826  13.183  0.0128 -0.1958 -0.3523
 1386S        S 8190   7.273   7.436  21.508 -0.1428  0.0597  0.1628
 1387S        S 8191   8.019   0.309  20.784 -0.4176 -0.4124  0.0950
 1388S        S 8192   6.150   1.575  18.997 -0.1157  0.1116 -0.5376
 1389S        S 8193   0.665  11.483  20.085  0.2631 -0.0119 -0.5180
 1390S        S 8194   8.437   8.912  18.571 -0.7006 -0.1320 -0.0232
 1391S        S 8195   7.410   8.790  14.173 -0.0344 -0.2868 -0.2361
 1392S        S 8196   0.342   1.629  16.154  0.0428 -0.1374  0.1223
 1393S        S 8197   8.141  11.244  19.363 -0.1156 -0.2409  0.1450
 1394S        S 8198   6.996   5.221  16.680 -0.0869  0.1517  0.1457
 1395S        S 8199   4.086  10.382  31.602  0.3511 -0.9839  0.1854
 1396S        S 8200   8.534   3.905  20.093  0.2388 -0.1625 -0.0086
 1397S        S 8201   0.736   8.606  19.346 -0.0408 -0.4924  0.3960
 1398S        S 8202   9.706  10.550  29.003  0.2760  0.5206  0.6117
 1399S        S 8203   6.247  11.318  19.075 -0.3990  0.4463 -0.1183
 1400S        S 8204   2.757   9.760  21.651 -0.1084 -0.8680 -0.3649
 1401S        S 8205   4.485   5.230  20.165  0.3242  0.6808 -0.1982
 1402S        S 8206   8.477   3.106  28.363 -0.5828  0.1741  0.7401
 1403S        S 8207   1.535   6.376  17.946  0.4003  0.3322 -0.1440
 1404S        S 8208   7.789   9.412  17.828  0.4297  0.3442 -0.2421
 1405S        S 8209   0.840   5.782  16.075  0.1151 -0.6522 -0.0619
 1406S        S 8210   1.843   5.844  12.302  0.6956  0.1089  0.2269
 1407S        S 8211   3.553   4.028  24.871 -0.2298 -0.0001  1.0180
 1408S        S 8212   6.190  10.623  22.261 -0.1518  0.2987 -0.7288
 1409S        S 8213  10.696   8.363  26.105  0.3208  0.0435  0.1367
 1410S        S 8214  12.179   3.093  24.260  0.1272  0.2851 -0.1895
 1411S        S 8215   0.720  11.615  25.648 -0.1176 -0.5732  0.2518
 1412S        S 8216   3.512   8.899  30.569 -0.5649 -0.2161  0.0300
 1413S        S 8217  10.273  11.582  28.684  0.5625 -0.5917 -0.1106
 1414S        S 8218   9.360   5.472  28.911  0.4406 -0.1653 -0.1303
 1415S        S 8219  11.724   0.808  25.091 -0.1590 -0.2212 -0.1558
 1416S        S 8220   0.993  12.126  22.396 -0.2898 -0.2079 -0.3909
 1417S        S 8221  10.783   7.679  27.672  0.2095  0.2936 -0.1227
 1418S        S 8222   3.359   4.577  24.374  0.3508 -0.1162  0.3389
 1419S        S 8223   3.917  12.302  16.865 -0.2012 -0.2975  0.3604
 1420S        S 8224  11.270   2.887  25.086  0.0030 -0.2541  0.0447
 1421S        S 8225   6.935   4.613  24.481  0.0809  0.2358  0.1146
 1422S        S 8226   8.270   2.900  13.843 -0.1297  0.4151 -0.0388
 1423S        S 8227   2.251   4.919  12.762 -0.2667  0.2735 -0.2446
 1424S        S 8228   8.390   5.206  19.664  0.5745 -0.4035  0.0438
 1425S        S 8229   1.705   6.190  15.805 -0.1917  0.0906 -0.0175
 1426S        S 8230   2.857  12.227  27.602  0.4875 -0.1957 -0.3007
 1427S        S 8231  10.981   3.302  19.176  0.6267  0.1656 -0.0383
 1428S        S 8232   6.465   9.567  24.397  0.0392 -0.3978  0.3268
 1429S        S 8233  11.501   4.386  23.793 -0.3076  0.3386 -0.0955
 1430S        S 8234   9.909   2.858  16.257  0.3455 -0.1335  0.1455
 1431S        S 8235   3.928  11.465  13.684 -0.1180  0.1411 -0.0183
 1432S        S 8236   1.458   6.602  15.110 -0.3174 -0.3576 -0.5383
 1433S        S 8237   1.069   8.942  16.590 -0.0736  0.5305 -0.1907
 1434S        S 8238   9.574   9.078  28.320  0.0604  0.0559  0.4192
 1435S        S 8239   8.062   4.853  17.888  0.1862 -0.1439 -0.2956
 1436S        S 8240  10.962   3.140  11.907 -0.0817 -0.3278 -0.2635
 1437S        S 8241   6.459  10.522  19.132  0.1420 -0.1008 -0.0447
 1438S        S 8242   6.627  12.171  21.904 -0.1807 -0.1491 -0.5125
 1439S        S 8243   7.217   0.066  11.348  0.2347  0.3008 -0.1011
 1440S        S 8244   5.362   6.335  48.361 -0.0587 -0.3468  0.2519
 1441S        S 8245   8.037   3.297  15.840  0.1074  0.1747 -0.0195
 1442S        S 8246   7.256   0.025  23.575  0.3678  0.1737  0.0774
 1443S        S 8247  10.991   3.047  13.761 -0.4326  0.0292 -0.2837
 1444S        S 8248   3.579   4.593  30.405 -0.6596  0.2571 -0.0999
 1445S        S 8249   7.489  10.753  24.154 -0.5874 -0.0088 -0.5450
 1446S        S 8250   2.338  11.911   7.117 -0.3604  0.1622  0.0786
 1447S        S 8251  12.282  10.679  12.573 -0.1218  0.3257  0.2764
 1448S        S 8252   7.076   2.194  25.069  0.2017  0.8092  0.4382
 1449S        S 8253  11.761   5.145  39.423 -0.3694 -0.3864  0.2752
 1450S        S 8254  10.503   3.306  29.711  0.1654  0.4803 -0.1806
 1451S        S 8255  11.133   9.406  26.109  0.1881 -0.1871  0.3365
 1452S        S 8256   7.879   9.137  14.345  0.0141  0.7147 -0.1114
 1453S        S 8257   8.172  10.997  22.887 -0.2415  0.0052  0.2045
 1454S        S 8258   8.627   0.097  19.997  0.1249 -0.3375  0.2375
 1455S        S 8259   6.702   3.276  18.735  0.0448 -0.3999  0.0453
 1456S        S 8260   0.695   0.983  24.547 -0.2497  0.4526  0.1040
 1457S        S 8261  12.228   9.304  11.339  0.1841  0.2280 -0.1513
 1458S        S 8262   0.035   9.430  32.218  0.1882  0.2267  0.6105
 1459S        S 8263   2.664   0.987  29.383 -0.1508  0.0875 -0.7232
 1460S        S 8264  10.431   8.071  15.022 -0.0948 -0.2352  0.0224
 1461S        S 8265   1.755  10.836  17.185 -0.5060  0.1268 -0.0452
 1462S        S 8266   2.966   1.131  24.754 -0.2325  0.2616 -0.1178
 1463S        S 8267   7.855   5.056  21.206 -0.3673 -0.0910  0.7782
 1464S        S 8268   1.405   4.915  26.244  0.1372  0.2566 -0.5548
 1465S        S 8269   1.199  11.669  28.133 -0.2660  0.1072  0.2785
 1466S        S 8270   8.130   1.737  19.242  0.3094 -0.4385 -0.2783
 1467S        S 8271   3.245  11.954  18.332 -0.2884  0.1070  0.1141
 1468S        S 8272   1.029   3.066  28.805  0.1651  0.2293  0.2516
 1469S        S 8273   7.617   9.502  27.359  0.0298  0.5034 -0.0282
 1470S        S 8274   8.273   1.730  11.647  0.1080 -0.1654 -0.2979
 1471S        S 8275   5.410   5.272  23.189 -0.3212  0.0726  0.1964
 1472S        S 8276   1.513   4.012  24.213 -0.3112 -0.6843  0.0044
 1473S        S 8277   6.369   5.636  18.940 -0.0019  0.2926 -0.1544
 1474S        S 8278   0.045   7.576  11.706  0.2156 -0.1713 -0.0188
 1475S        S 8279   5.502   1.766  27.976 -0.0128  0.5737  0.4148
 1476S        S 8280   6.476  10.833  29.537 -0.2576 -0.6009 -0.2652
 1477S        S 8281   9.183  12.062  11.793 -0.2554 -0.3501 -0.4525
 1478S        S 8282   9.653   8.792  27.368 -0.4217 -0.1627  0.5425
 1479S        S 8283  11.475   2.229   7.781 -0.3087 -0.2511  0.2658
 1480S        S 8284   0.032   6.343  13.491 -0.1137 -0.3099 -0.2368
 1481S        S 8285   6.568  11.578  23.691 -0.0163 -0.1725  0.2353
 1482S        S 8286   0.973   6.851  22.131 -0.5457 -0.0449 -0.2673
 1483S        S 8287   2.967   6.637  28.637 -0.2161  0.0754  0.3168
 1484S        S 8288   5.184  10.438  18.717 -0.0787  0.0100 -0.2262
 1485S        S 8289   2.592   7.420  16.754 -0.4625 -0.3221 -0.2076
 1486S        S 8290   5.009   8.657  16.511  0.1594  0.4633  0.2804
 1487S        S 8291   3.037   8.795  16.742  0.2987 -0.0463 -0.0538
 1488S        S 8292   9.609   6.544  17.757  0.1561  0.3197  0.5883
 1489S        S 8293   6.395  11.826  21.358  0.2601 -0.9956  0.3560
 1490S        S 8294   3.714   7.154  14.181  0.1254 -0.0759 -0.4638
 1491S        S 8295   5.544  10.716  12.852  0.2087 -0.0949 -0.1187
 1492S        S 8296   3.811   9.339  24.547  0.1919 -0.0951  0.6565
 1493S        S 8297   5.294   1.495  13.999  0.9419  0.1616  0.6443
 1494S        S 8298   0.216   6.972  12.032  0.0908 -0.0910  0.1014
 1495S        S 8299  12.296   1.939  12.355 -0.2894 -0.2931 -0.4225
 1496S        S 8300   3.023   2.766  20.097 -0.1106  0.6186 -0.0174
 1497S        S 8301   1.010   3.163  31.707 -1.2612  0.0794  0.3819
 1498S        S 8302   6.007  12.142  19.459  0.7657 -0.2528  0.3268
 1499S        S 8303   7.513   7.996  19.907  0.1511  0.0199 -0.4067
 1500S        S 8304   9.589   3.192  20.240  0.1512  0.3878 -0.6994
 1501S        S 8305   5.467   4.297  20.241  0.3719  0.4126 -0.0568
 1502S        S 8306   5.181   8.515  13.272  0.3347  0.0864 -0.0311
 1503S        S 8307   8.773   1.191  13.003  0.3349 -0.2987 -0.1433
 1504S        S 8308   1.623   1.619  27.544  0.1397 -0.0424 -0.8998
 1505S        S 8309   7.606   2.439  27.558 -0.4096  0.2329 -0.4156
 1506S        S 8310   6.639   3.633  28.879 -0.4910  0.4887  0.5496
 1507S        S 8311  11.728   4.277  24.282 -0.6847 -0.1454 -0.3716
 1508S        S 8312   2.478   0.663  13.776 -0.7720 -0.1138  0.0760
 1509S        S 8313   6.527  11.388  24.292  0.1785 -0.3552  0.1663
 1510S        S 8314   1.849   1.701  13.133 -0.0768  0.3189  0.1452
 1511S        S 8315   3.780   9.650  14.352  0.5218  0.6649  0.0492
 1512S        S 8316  11.020   2.191  21.345 -0.0038  0.6066  0.2752
 1513S        S 8317   9.894   6.250  21.318  0.3872 -0.0651 -0.2758
 1514S        S 8318   9.068   7.759  24.099  0.1891 -0.2903 -0.6374
 1515S        S 8319   5.057   2.781  15.982 -0.3347 -0.2348  0.3406
 1516S        S 8320   0.548   8.155  23.344 -0.3399 -0.1602 -0.1302
 1517S        S 8321   8.806   5.911   5.135  0.1382 -0.0916  0.0722
 1518S        S 8322   1.185  11.022  19.657  0.1061 -0.0892  0.2350
 1519S        S 8323   6.352   8.768  21.691 -0.1008 -0.0912 -0.2378
 1520S        S 8324   0.554   7.298  19.376  0.4865  0.2442  0.2466
 1521S        S 8325  10.037   2.728  15.386  0.3425  0.2218  0.1382
 1522S        S 8326   9.580   0.261  30.156 -0.5053 -0.1470  0.2355
 1523S        S 8327   9.121   9.429  29.407  0.7210  0.4648 -0.3414
 1524S        S 8328  12.063   9.350  15.317  0.0314  0.0957 -0.4643
 1525S        S 8329  11.028   0.936  23.801 -0.4678  0.6053  0.4387
 1526S        S 8330   7.542   1.621  23.381 -0.3336 -0.1376 -0.4411
 1527S        S 8331   5.078   0.567  27.804  0.5754  0.2633  0.6628
 1528S        S 8332   2.707  12.018  21.195  0.0203 -0.8825  0.1428
 1529S        S 8333   9.452  11.984  15.535  0.6066 -0.7277  0.0135
 1530S        S 8334   2.971   7.315  19.105 -0.1797  0.0354 -0.2680
 1531S        S 8335  12.122  10.633  19.180  0.5043  0.5392 -0.6281
 1532S        S 8336   7.081   0.603  17.353  0.3538 -0.0602 -0.0596
 1533S        S 8337   1.781  11.380  31.912  0.4205 -0.2091 -0.1726
 1534S        S 8338   1.292   8.027  12.153 -0.2138 -0.0718  0.2507
 1535S        S 8339   2.093  10.171  18.898  0.1265 -0.1704  0.1328
 1536S        S 8340   5.384   3.987  24.746 -0.0764  0.4613  0.3170
 1537S        S 8341   3.489   2.936  20.495  0.0952  0.1861 -0.0890
 1538S        S 8342   5.237   3.875  18.863  0.7614 -0.2171  0.0097
 1539S        S 8343  12.013   1.254  17.033 -0.4542  0.0939 -0.1095
 1540S        S 8344   2.722   6.286  14.884  0.4476  0.2252 -0.1882
 1541S        S 8345   1.257  10.681  27.041  0.0427 -0.0982 -0.1679
 1542S        S 8346  11.980  11.428  20.071  0.0303 -0.0259 -0.3791
 1543S        S 8347   5.152   7.489  27.272  0.5325 -0.5942  0.8206
 1544S        S 8348   2.622  10.846  16.780 -0.6189 -0.0145  0.3385
 1545S        S 8349   4.689   3.879  16.502  0.2030 -0.5899 -0.2973
 1546S        S 8350  11.705   8.426  24.980 -0.1848 -0.4941  0.0296
 1547S        S 8351  10.399   5.249  12.718  0.4222  0.1672 -0.2437
 1548S        S 8352   9.577   7.423  15.038  0.0592  0.0199 -0.3286
 1549S        S 8353   1.928   4.480  18.541  0.0731  0.1778 -0.1539
 1550S        S 8354   6.363   9.862  33.412 -0.1226  0.4584  0.5010
 1551S        S 8355   7.062   8.275  12.478 -0.0006  0.1672 -0.0838
 1552S        S 8356  11.009  10.573  13.585 -0.0603 -0.3868 -0.1409
 1553S        S 8357   8.743  12.347  31.385 -0.6150 -0.2437  0.2536
 1554S        S 8358   0.909  12.186  19.278  0.5717 -0.2844  0.0492
 1555S        S 8359   7.256  10.564  29.807  0.2966  0.1030  0.3118
 1556S        S 8360   7.237   3.842  21.394 -0.0458  0.2093  0.3330
 1557S        S 8361  10.087   4.399  12.103 -0.1207  0.0585  0.0403
 1558S        S 8362   3.588   6.401  25.589 -0.3386 -0.1323  0.5022
 1559S        S 8363   6.530   4.651  14.387 -0.3364  0.2423  0.0869
 1560S        S 8364   0.745  11.825  18.736 -0.2729 -0.0576  0.0154
 1561S        S 8365   3.846   9.004  27.480 -0.2807 -0.3386 -0.1948
 1562S        S 8366   5.355   1.349  27.280 -0.0759  0.2612 -0.1356
 1563S        S 8367   8.593   1.214  16.788 -0.6449  0.1030  0.2556
 1564S        S 8368   1.895   4.488  14.698  0.2381 -0.3770  0.2535
 1565S        S 8369   9.919   1.936  19.115  0.0679  0.3165  0.2767
 1566S        S 8370   4.297  11.187  15.515  0.1179  0.1318 -0.0536
 1567S        S 8371   8.581   8.497  23.095 -0.2393  0.0069 -0.2135
 1568S        S 8372  11.171   8.520  23.415  0.0165  0.3385  0.4736
 1569S        S 8373   9.366   5.138  30.299  0.7338  0.4395 -0.3198
 1570S        S 8374   0.026   0.343  24.364  0.3944  0.0804 -0.6716
 1571S        S 8375   8.501   3.536  15.655 -0.7531 -0.3115 -0.1510
 1572S        S 8376   6.129   6.367  15.072  0.3099  0.3479 -0.2865
 1573S        S 8377   3.604   3.891  29.427 -0.5834 -0.1567  0.1749
 1574S        S 8378   9.403  11.155  15.937  0.0898 -0.4740 -0.2193
 1575S        S 8379  11.577  11.928  25.664 -0.0110  0.0377  0.1467
 1576S        S 8380   1.084   4.220  14.894 -0.1254 -0.2686  0.0981
 1577S        S 8381   8.816   5.672  15.119 -0.2375  0.2429  0.0520
 1578S        S 8382   6.175   1.541  26.293 -0.0663 -0.1024  0.4964
 1579S        S 8383   2.046   4.443  17.957 -0.1206 -0.4117 -0.1426
 1580S        S 8384   7.168   7.338  22.285 -0.1217 -0.1068  0.7996
 1581S        S 8385   7.173   8.311  14.896 -0.5925  0.2857  0.1099
 1582S        S 8386   6.719   8.441  12.105 -0.5416  0.7279  0.2204
 1583S        S 8387   9.027  10.768  23.564 -0.6211  0.0265  0.1196
 1584S        S 8388   7.543   9.113  12.426 -0.4455 -0.1845 -0.1033
 1585S        S 8389   1.941  12.066  12.376  0.4678  0.3053  0.1813
 1586S        S 8390   3.317   5.668  28.605  0.0957  0.0282 -0.7225
 1587S        S 8391   7.343   4.472  21.301 -0.6441 -0.0526  0.2398
 1588S        S 8392   5.390   2.512  31.055 -0.0727  0.6143 -0.0714
 1589S        S 8393  12.161   9.803  16.400 -0.2865  0.3069 -0.2002
 1590S        S 8394   9.568   7.771  22.691 -0.0151 -0.1253  0.5028
 1591S        S 8395   6.024  11.115  13.980  0.2496 -0.0549  0.3151
 1592S        S 8396   3.000   8.493  23.338  0.2802  0.2923 -0.1972
 1593S        S 8397   3.677   4.872  22.289 -0.4676  0.4027 -0.5832
 1594S        S 8398   7.481  11.146  12.755  0.0418  0.3421  0.0007
 1595S        S 8399   5.183   7.388  17.837  0.0992  0.3824 -0.4008
 1596S        S 8400   4.846  11.934  19.410 -0.3114 -0.1835 -0.0755
 1597S        S 8401  11.677   3.944  29.159  0.4962 -0.0383 -0.2097
 1598S        S 8402   0.243   8.574  14.780  0.1173  0.1158  0.1144
 1599S        S 8403   0.091   6.352  28.529 -0.0730 -0.5009  0.4579
 1600S        S 8404   8.636   0.773  17.043 -0.1278  0.2300 -0.2886
 1601S        S 8405   1.134   3.843  21.649 -0.6184  0.3964  0.1537
 1602S        S 8406   5.410   7.834  29.268 -0.1146  0.4216  0.1612
 1603S        S 8407   5.175   5.735  15.348 -0.0444 -0.3247 -0.3244
 1604S        S 8408   9.310   6.733  27.524 -0.2713  0.3407  0.0832
 1605S        S 8409   0.579   7.136  24.095  0.7829  0.6316  0.2238
 1606S        S 8410  10.341   2.459  32.397  0.0787 -0.1482 -0.4559
 1607S        S 8411   4.726   8.898  27.858  0.1415  0.2306 -0.8400
 1608S        S 8412   4.823   3.822  14.708  0.7158 -0.5437  0.4034
 1609S        S 8413  12.260  11.538  33.373 -0.0560  0.0261  0.2746
 1610S        S 8414   6.334   2.733  24.141  0.0224  0.1911  0.1207
 1611S        S 8415   9.226   5.070  17.369 -0.3699  0.2673  0.5609
 1612S        S 8416   8.284   5.395  26.560  0.5001 -0.0147 -0.2203
 1613S        S 8417   0.754  10.248  11.027 -0.1692 -0.4720 -0.4167
 1614S        S 8418  10.804   2.442  15.139 -0.1464 -0.1731 -0.1136
 1615S        S 8419  12.082   3.627  12.915 -0.3178  0.2529  0.3442
 1616S        S 8420   6.125   9.854  29.327  0.1120 -0.1225 -0.0965
 1617S        S 8421   9.245   4.558  27.319 -0.4863  0.2954  0.2893
 1618S        S 8422   7.627   4.566  29.740  0.3668  0.0656  0.1868
 1619S        S 8423   5.644   7.806  27.810 -0.4590  0.6998  0.0833
 1620S        S 8424   7.596   8.468  17.542 -0.2508  0.0085  0.2682
 1621S        S 8425   9.824   5.253  22.876  0.1371 -0.0845  0.4638
 1622S        S 8426  10.525   2.499  15.631 -0.2440  0.0219  0.2306
 1623S        S 8427  11.918   9.013  15.723 -0.1094  0.3497 -0.0613
 1624S        S 8428   9.737   4.028  12.273 -0.2474 -0.1593 -0.1035
 1625S        S 8429   3.044  10.919  27.201  0.0761  0.0210  0.4557
 1626S        S 8430   9.758   9.526  18.981 -0.0662  0.0375 -0.0538
 1627S        S 8431   1.073   8.322  14.488  0.1699  0.0349  0.2628
 1628S        S 8432   9.195   5.329  24.007  0.1016 -0.8092  0.3831
 1629S        S 8433   3.104   6.165  13.381 -0.0124  0.3701  0.0989
 1630S        S 8434   5.017   8.801   4.644 -0.0681  0.1864  0.1293
 1631S        S 8435   3.717   8.198  18.229 -0.1835  0.1406  0.4910
 1632S        S 8436   0.273   0.187  26.029  0.1215  0.1440  0.2186
 1633S        S 8437   5.145   6.944  20.590 -0.2794 -0.2524  0.0231
 1634S        S 8438  11.419   9.152  12.707  0.6404  0.3651 -0.2550
 1635S        S 8439   4.345   6.458  23.366 -0.4415 -0.1163  0.0850
 1636S        S 8440   2.525   8.807  19.107  0.0151 -0.1892 -0.2085
 1637S        S 8441   0.465   4.490  11.979 -0.2097 -0.2213  0.0317
 1638S        S 8442   9.143   2.870  23.193  0.3054  0.4611  0.5919
 1639S        S 8443   9.244   5.761  22.118  0.1534 -0.0384  0.2529
 1640S        S 8444   4.126   0.892  25.270 -0.0522 -0.0989  0.1761
 1641S        S 8445   8.326   7.186  20.986 -0.1658  0.5741  0.1172
 1642S        S 8446   9.982   8.368  16.134 -0.1735 -0.4494 -0.1565
 1643S        S 8447   2.656   3.265  14.233  0.3005 -0.6024  0.1204
 1644S        S 8448  10.878   9.813  19.266 -0.1654  0.3498 -0.2117
 1645S        S 8449   3.990   4.847  14.945 -0.4537  0.3432 -0.2679
 1646S        S 8450   1.463   1.578  23.924 -0.2875  0.6427 -0.5447
 1647S        S 8451   9.431  10.307  14.238 -0.1340  0.0234 -0.4860
 1648S        S 8452   0.783  10.737  19.345  0.4728 -0.0940  0.2141
 1649S        S 8453   6.292   3.345  17.858  0.3210  0.1954 -0.6032
 1650S        S 8454   8.247   8.168  16.403 -0.0677 -0.3309  0.1667
 1651S        S 8455   7.633   5.707  25.781  0.7932 -0.0039  0.1140
 1652S        S 8456   6.849   4.709  37.145 -0.4536  0.0563  0.3968
 1653S        S 8457   1.387  11.275  27.640  0.1834 -0.1660  0.1218
 1654S        S 8458   9.131   1.979  30.136 -0.1283  0.0662  0.3264
 1655S        S 8459   2.931   8.828  11.901  0.0109 -0.1635 -0.1565
 1656S        S 8460   6.069   8.142  22.339 -0.3168  0.0156  0.2338
 1657S        S 8461  11.565  11.896  17.661 -0.5139  0.6238  0.4954
 1658S        S 8462  11.857   1.245  25.347 -0.1617  0.1130 -0.4792
 1659S        S 8463   9.366   8.124  31.467 -0.3699 -0.5432  0.0257
 1660S        S 8464   9.945   0.048  19.322  0.0658 -0.3781  0.1158
 1661S        S 8465   7.476  12.251  16.806  0.2620 -0.6202 -0.3564
 1662S        S 8466   4.368   4.828  15.754 -0.1186  0.1303  0.4505
 1663S        S 8467   3.843   1.124  20.014 -0.0323  0.4854  0.5118
 1664S        S 8468   5.658  10.379  27.308  0.1101 -0.2983 -0.1294
 1665S        S 8469  11.987   9.687  20.424 -0.0619 -0.0911  0.0159
 1666S        S 8470  10.466   2.992  24.945 -0.4317 -0.3144 -0.5046
 1667S        S 8471   2.060   1.021  17.648 -0.1552  0.1087  0.3544
 1668S        S 8472   7.579   0.978  14.778 -0.7578 -0.0145  0.2040
 1669S        S 8473   0.836   7.208  11.380  0.3155  0.4310  0.4988
 1670S        S 8474   2.203  10.253  20.334 -0.0051 -0.3645 -0.6029
 1671S        S 8475   9.445   5.600  22.921  0.0736 -0.3873  0.3716
 1672S        S 8476   6.755   8.875  28.522  1.0332  0.4602  0.0563
 1673S        S 8477  11.657   7.957  13.516 -0.5995  0.2929  0.7035
 1674S        S 8478  10.803   3.732  24.337  0.0696  0.1410 -0.3857
 1675S        S 8479   7.998   9.722  27.602  0.3316  0.6750 -0.5056
 1676S        S 8480   4.084   0.638  14.675 -0.4519  0.2243 -0.1038
 1677S        S 8481   0.221   3.128  22.091 -0.1298 -0.2248 -0.3750
 1678S        S 8482  10.473   1.667  16.414 -0.1406 -0.2055  0.1482
 1679S        S 8483   9.669   7.619  19.077  0.1120  0.2982 -0.1588
 1680S        S 8484   7.167  12.232  20.484  0.2139  0.5805  0.3436
 1681S        S 8485   0.606  10.766  30.218 -0.2110  0.4238  0.0968
 1682S        S 8486   2.215   8.217  21.124  0.0472  0.4114  0.2341
 1683S        S 8487   2.482   8.020  28.040 -0.4634 -0.1478 -0.0085
 1684S        S 8488   1.858  12.287  21.010  0.2967  0.0967 -0.2151
 1685S        S 8489   3.978  11.929  25.825  0.4423 -0.2698  0.6717
 1686S        S 8490   0.178   1.899  32.187 -0.2771 -0.0600  0.4895
 1687S        S 8491   8.395  10.800  20.379 -0.4651 -0.2620 -0.2360
 1688S        S 8492  10.011   0.278  38.972  0.2652 -0.6301  0.4777
 1689S        S 8493   3.201   6.427   5.615  0.0881 -0.0407 -0.4481
 1690S        S 8494   1.735   9.354  28.096  0.2549 -0.1414 -0.0826
 1691S        S 8495   3.974   3.772  15.733 -0.1600 -0.4266 -0.2724
 1692S        S 8496   7.159   6.611  27.506  0.5687  0.2292 -0.1318
 1693S        S 8497   8.405   8.770  15.162  0.2246 -0.0634 -0.3730
 1694S        S 8498   2.711   2.265  23.266  0.0504 -0.0959 -0.1867
 1695S        S 8499   7.305   8.548  13.338 -0.2694 -0.2251 -0.3527
 1696S        S 8500   6.111   9.087  22.068  0.2519  0.0960  0.1050
 1697S        S 8501  11.628   5.242  12.678  0.2252 -0.0286  0.5166
 1698S        S 8502   4.172   3.018  17.694 -0.1628  0.3140  0.0137
 1699S        S 8503   9.572   9.739  23.201  0.0224  0.2994  0.4194
 1700S        S 8504   4.799   8.020  28.527  0.1938 -0.0557  0.1250
 1701S        S 8505  10.861   7.459  21.774  0.2803  0.3705 -0.0391
 1702S        S 8506   4.498   4.398  26.410  0.1322  0.0655  0.6219
 1703S        S 8507   6.581   5.579  15.987 -0.2583 -0.1988  0.2950
 1704S        S 8508   9.720   1.785  31.212 -0.5030  0.2356  0.0054
 1705S        S 8509   8.820   2.741  16.159 -0.0498 -0.5138 -0.2651
 1706S        S 8510   4.290   4.841  27.408  0.3184 -0.3443 -0.7558
 1707S        S 8511   8.118   7.618  29.448 -0.0265 -0.1922  0.2776
 1708S        S 8512   6.196   0.659  13.163  0.3331 -0.3201  0.3798
 1709S        S 8513   9.036  11.262  11.716 -0.6541  0.2870  0.4332
 1710S        S 8514   4.149   2.310  22.921  0.0266  0.1072 -0.1293
 1711S        S 8515   1.670   4.033  32.801  0.0904 -0.0358  0.3192
 1712S        S 8516   5.188  11.417  19.869  0.0009  0.1645  0.2022
 1713S        S 8517   2.630   8.335  18.917 -0.2773 -0.2528  0.1544
 1714S        S 8518   8.309   4.132  23.108 -0.2427  0.4953  0.0981
 1715S        S 8519   9.312   6.735  32.557 -0.3797  0.7352  0.2802
 1716S        S 8520   0.951  12.336  27.584 -0.3713  0.1594 -0.6146
 1717S        S 8521   1.197  10.740  22.083 -0.2263 -0.2174 -0.1395
 1718S        S 8522   0.259   6.372  16.772 -0.0307 -0.4073 -0.1873
 1719S        S 8523  11.460   5.844  31.255  0.2305 -0.4002 -0.1101
 1720S        S 8524  11.617   1.182  28.226 -0.4289  0.3459 -0.5251
 1721S        S 8525   1.946   5.919  32.011 -0.1132  0.1823 -0.4786
 1722S        S 8526  10.588  11.883  30.821 -0.9070  0.1788 -0.2493
 1723S        S 8527   2.610   9.735  30.775 -0.4640 -0.0815  0.5780
 1724S        S 8528   5.054   6.605  11.962 -0.0043  0.0575  0.2055
 1725S        S 8529   6.275   5.928  23.206  0.0733  0.3269  0.0883
 1726S        S 8530   1.114   5.232  13.160  0.2499 -0.3372  0.2246
 1727S        S 8531   4.444   0.073  29.177  0.0924 -0.1100  0.3953
 1728S        S 8532   0.421  11.082  22.713 -0.1020 -0.0004 -0.1049
 1729S        S 8533   5.914   3.463  47.351 -0.0333  0.0195  0.4946
 1730S        S 8534   5.211   6.085  21.048 -0.2241 -0.1659 -0.2822
 1731S        S 8535   9.476   5.219  19.855  0.0381 -0.2256  0.1073
 1732S        S 8536   7.775   2.919  27.455  0.2612  0.0676  0.1469
 1733S        S 8537   9.061   4.876  19.959 -0.6762  0.3013 -0.1895
 1734S        S 8538   9.032  11.246  19.268 -0.1761  0.1208 -0.3638
 1735S        S 8539   2.534   6.762  14.763 -0.3683 -0.0045 -0.1985
 1736S        S 8540   8.829   6.555  27.372  0.2930 -0.3862  0.2003
 1737S        S 8541   3.585  10.453  25.564  0.1241  0.1103  0.4458
 1738S        S 8542   9.088   7.816  15.760 -0.1279  0.0125 -0.1929
 1739S        S 8543   3.419   5.669  19.880 -0.0093 -0.0207 -0.3443
 1740S        S 8544  11.694   6.287  11.761 -0.2670 -0.2517  0.2886
 1741S        S 8545  10.607   5.993  23.162  0.1993 -0.0802  0.1795
 1742S        S 8546   8.959  11.710  21.826 -0.3437 -0.6141 -0.1722
 1743S        S 8547  10.149   2.593  12.393 -0.0603  0.1347 -0.4558
 1744S        S 8548  10.239   3.720  22.003  0.2330 -0.0919 -0.0926
 1745S        S 8549  11.354   7.497  21.621 -0.2493  0.0679 -0.3571
 1746S        S 8550   2.465  12.206  22.089  0.1028 -0.1349 -0.3506
 1747S        S 8551   7.211  11.560  21.359 -0.2348 -0.4003 -0.1623
 1748S        S 8552   8.570   0.554  15.527  0.2381  0.2757 -0.2979
 1749S        S 8553  10.647   4.710  20.215 -0.3474 -0.1646 -0.5523
 1750S        S 8554   4.332   0.907  13.311 -0.2055  0.2091 -0.0404
 1751S        S 8555  10.325   3.855  19.265 -0.3209 -0.0624  0.0556
 1752S        S 8556   9.577   6.691  21.542  0.4108 -0.0505  0.1778
 1753S        S 8557   6.933   5.064  30.463 -0.1031  0.2058  0.1484
 1754S        S 8558   0.952  10.319  13.184  0.6115 -0.1903 -0.3728
 1755S        S 8559  10.892   0.093   0.605  0.2894  0.2589  0.7017
 1756S        S 8560   7.652   7.239  27.824  0.4152 -0.0824  0.5388
 1757S        S 8561   5.445  11.334  16.837 -0.5765 -0.2181 -0.0714
 1758S        S 8562   9.404   2.197  31.183  0.1608 -0.1527 -0.0475
 1759S        S 8563  11.028   9.875  13.580 -0.0264 -0.6074 -0.6752
 1760S        S 8564   8.231   1.285  12.800 -0.0980  0.5076 -0.1731
 1761S        S 8565   8.577  10.917  12.009  0.2152  0.1025  0.0245
 1762S        S 8566   3.310  10.263  29.230 -0.6422 -0.0670 -0.6507
 1763S        S 8567   0.605   2.339  11.774  0.2859 -0.2131 -0.2918
 1764S        S 8568  11.140  11.293  15.939 -0.6001  0.3795  0.3036
 1765S        S 8569   1.191   7.476  25.540 -0.0548  0.4189 -0.0307
 1766S        S 8570   1.646   3.840  27.400  0.3297  0.0615 -0.4181
 1767S        S 8571   8.582   7.033  19.879 -0.0403 -0.1486  0.1466
 1768S        S 8572   7.272   3.794  19.455 -0.1663 -0.2593 -0.3961
 1769S        S 8573   2.307   7.065  27.653 -0.3694  0.3105  0.1581
 1770S        S 8574   2.698   3.108  16.989  0.0837  0.9703  0.0407
 1771S        S 8575   1.630   9.771  27.733 -0.0253 -0.2413 -0.2683
 1772S        S 8576   5.302   8.739  15.756  0.2026  0.4880 -0.6127
 1773S        S 8577   3.165   0.077  25.853 -0.1283 -0.0575  0.4884
 1774S        S 8578   6.054   1.337  15.878 -0.0483 -0.5232 -0.1867
 1775S        S 8579   3.229   8.972  29.623 -0.1405 -0.2105 -0.2986
 1776S        S 8580   5.211   9.895  16.426 -0.2280 -0.4006  0.0799
 1777S        S 8581   1.348   5.582  14.166 -0.3353  0.2038  0.2089
 1778S        S 8582   8.695   6.287  20.655 -0.4356 -0.1768  0.2074
 1779S        S 8583   4.798   4.033  29.893  0.0797 -0.4050  0.0186
 1780S        S 8584   5.806   0.004  17.441  0.0512  0.1292  0.1225
 1781S        S 8585   1.800   5.789  14.059 -0.1522  0.4090  0.2697
 1782S        S 8586   6.882  10.304   9.324 -0.0736  0.0892  0.5336
 1783S        S 8587   8.487  11.210  14.938  0.2481  0.1033 -0.1662
 1784S        S 8588   7.675   8.003  22.885  0.3916  0.0664 -0.2537
 1785S        S 8589   2.644   9.848  28.078 -0.3611  0.2363 -0.4179
 1786S        S 8590  10.329  10.660  16.380 -0.5929  0.2177  0.0028
 1787S        S 8591   7.972   0.947  11.292 -0.0089  0.2478  0.5270
 1788S        S 8592   7.085   3.175  15.289 -0.0623  0.3280 -0.0012
 1789S        S 8593   5.665  10.852  17.104  0.2185 -0.0014  0.2371
 1790S        S 8594  10.264   0.530  18.493 -0.2631 -0.1908 -0.1668
 1791S        S 8595   8.087   5.669  34.240 -0.3513 -0.2271 -0.1385
 1792S        S 8596  11.358   7.582  11.883  0.2541 -0.4960  0.1041
 1793S        S 8597  11.400   9.267  13.218  0.3672 -0.0266 -0.0219
 1794S        S 8598   1.437  11.232  17.467 -0.1364 -0.1509  0.0304
 1795S        S 8599   3.149   3.081  24.463 -0.3008 -0.1870  0.1727
 1796S        S 8600   2.329  11.688  25.046  0.2116 -0.3978 -0.4987
 1797S        S 8601   9.480   6.449  29.130 -0.2746  0.4433  0.4603
 1798S        S 8602   1.635   5.128  22.539  0.8065 -0.2702  0.0737
 1799S        S 8603  11.960   8.353  30.383 -0.6813  0.0054 -0.2452
 1800S        S 8604   9.134  12.100  24.189 -0.5192  0.0959 -0.2576
 1801S        S 8605   8.348   5.732  16.691 -0.4363 -0.0058 -0.0496
 1802S        S 8606   7.496   1.151  16.180 -0.0911 -0.2904 -0.0270
 1803S        S 8607   7.405   4.736  12.249  0.1737  0.1748  0.0415
 1804S        S 8608   1.412   9.806  17.027  0.1774 -0.3911  0.1924
 1805S        S 8609   4.427  10.622  19.095  0.3792  0.4594  0.0428
 1806S        S 8610  10.543  10.083  24.817  0.3575 -0.1135 -0.3278
 1807S        S 8611  12.064  12.003  24.817 -0.8932  0.8013 -0.0424
 1808S        S 8612   3.030   5.820  17.335  0.3341  0.2671 -0.3894
 1809S        S 8613   2.955   8.831  15.308 -0.0172 -0.1739 -0.0718
 1810S        S 8614   5.388  11.853  18.010 -0.2391  0.2548  0.0362
 1811S        S 8615   9.531   2.385  11.594  0.5339 -0.3466 -0.2492
 1812S        S 8616   9.659   0.740  23.327 -0.0907 -0.2952 -0.5437
 1813S        S 8617  11.888  10.028  19.096  0.2822  0.3154 -0.1394
 1814S        S 8618   5.309   3.368  20.683 -0.6346  0.1996 -0.1108
 1815S        S 8619   4.690   3.118  15.802  0.3070  0.2124 -0.6018
 1816S        S 8620  11.960   3.696  30.205  0.0935  0.5345  0.0659
 1817S        S 8621  11.256   0.651  32.240  1.0003 -0.1510  0.4403
 1818S        S 8622   2.024  12.175  28.534  0.1775 -0.0079  0.0706
 1819S        S 8623  10.063   5.934  21.756  0.2859 -0.1426  0.0251
 1820S        S 8624   5.390   7.118  17.221 -0.2224 -0.3104 -0.0314
 1821S        S 8625  12.302  11.301  19.026 -0.4001 -0.2514  0.0875
 1822S        S 8626  10.507  10.413  30.267 -0.4399  0.3574  0.2580
 1823S        S 8627   5.185   7.940  22.907  0.3708 -0.1563  0.0592
 1824S        S 8628   4.987  10.772  18.062  0.2312  0.1860  0.0559
 1825S        S 8629   1.527   5.013  15.026 -0.1548 -0.1258 -0.1194
 1826S        S 8630   4.593   0.577  35.219  0.2644 -0.0816 -0.1775
 1827S        S 8631  11.332   8.464  12.137 -0.1283  0.1406 -0.3211
 1828S        S 8632   0.291  11.880  25.617  0.1150  0.0415  0.3010
 1829S        S 8633   8.118   3.075  27.927 -0.0144 -0.4493  0.2732
 1830S        S 8634   9.905   9.176  19.415  0.0572  0.1668 -0.0149
 1831S        S 8635   3.662   7.284  10.500  0.1840 -0.0840  0.0448
 1832S        S 8636   0.658   2.472  12.396  0.3134 -0.2807 -0.2050
 1833S        S 8637   2.632   3.580  21.637 -0.3688  0.0454  0.3151
 1834S        S 8638   7.280   2.314  23.640 -0.0977 -0.3202  0.0449
 1835S        S 8639  10.842  12.094   0.979 -0.1760 -0.0096  0.8201
 1836S        S 8640   2.737   0.404  30.296 -0.7139  0.1460 -0.8807
 1837S        S 8641   2.747   0.629  22.339  0.1558  0.2855 -0.0225
 1838S        S 8642   3.401   0.413  13.498  0.0165  0.4968  0.2865
 1839S        S 8643   6.294  10.549  16.145 -0.0500  0.4257  0.1651
 1840S        S 8644   7.170   2.103  15.344 -0.4250 -0.3177 -0.1770
 1841S        S 8645   7.336   2.433  30.891  0.0600 -0.5809  0.1891
 1842S        S 8646   8.269  11.008  14.016 -0.1937 -0.2676 -0.2206
 1843S        S 8647   4.616  11.354  12.357  0.3297 -0.2831 -0.2059
 1844S        S 8648   2.573   6.311  13.712  0.1125 -0.4704 -0.0213
 1845S        S 8649  10.273   9.055  11.212 -0.1457 -0.1089 -0.3932
 1846S        S 8650  10.791   7.506  24.676  0.5954  0.1466  0.2963
 1847S        S 8651   3.204   6.546  47.091 -0.1723  0.0230 -0.1603
 1848S        S 8652   5.090  10.693  11.098 -0.5153 -0.4159 -0.1230
 1849S        S 8653   8.865   7.414  28.546 -0.1938  0.3928 -0.0820
 1850S        S 8654  12.194   5.951  26.398  0.4249  0.2544 -0.2863
 1851S        S 8655   2.014   6.317  27.006  0.2310 -0.4495 -0.4214
 1852S        S 8656   0.900   2.073  13.940  0.3147 -0.3818 -0.8260
 1853S        S 8657   2.940   2.024  27.423  0.5700 -0.0487  0.1562
 1854S        S 8658   7.786   7.920  29.599 -0.2384  0.0831  0.6436
 1855S        S 8659   1.556   4.519  15.094  0.0952 -0.1486  0.0253
 1856S        S 8660   8.968   5.377  19.772  0.1142  0.3983  0.0410
 1857S        S 8661   5.362   8.212  16.622  0.2608 -0.0468  0.1242
 1858S        S 8662   0.811   2.848  22.787  0.0093  0.1540  0.3232
 1859S        S 8663   0.583   1.464  22.974  0.0947 -0.2812  0.4732
 1860S        S 8664  11.785   2.840  11.571 -0.0998 -0.1595  0.1165
 1861S        S 8665  10.559   5.539  29.365  0.0631  0.2518  0.3998
 1862S        S 8666   3.848   3.174  21.592 -0.4267 -0.2388  0.4229
 1863S        S 8667   9.030   2.198  11.607  0.3371 -0.2500 -0.2498
 1864S        S 8668   8.207   7.134  19.036  0.2593 -0.0599 -0.2327
 1865S        S 8669   9.346  11.581  26.936  0.0297 -0.1367  0.1005
 1866S        S 8670   8.327   7.139  29.488  0.7174  0.0956  0.2297
 1867S        S 8671  11.413   1.683  23.242  0.8673 -0.4174  0.8248
 1868S        S 8672   2.452   3.859  24.290  0.0898  0.4509  0.0517
 1869S        S 8673   2.377   0.957  26.734 -0.5265  0.0244 -0.1126
 1870S        S 8674   6.800   8.193  16.385  0.3204  0.3035  0.8633
 1871S        S 8675   7.251  11.210  18.144 -0.1287  0.0688 -0.0751
 1872S        S 8676  11.031   4.109  31.458 -0.0368 -0.5941  0.4302
 1873S        S 8677   3.326   3.293  22.785 -0.7244  0.0679 -0.3453
 1874S        S 8678   8.221   8.181  29.558 -0.4216  0.4225 -0.3199
 1875S        S 8679   0.895   8.003  24.693 -0.2042 -0.2425  0.1450
 1876S        S 8680  10.466   6.205  22.752  0.1230  0.2829  0.2037
 1877S        S 8681   8.544   6.373  13.326  0.3062  0.0211  0.1804
 1878S        S 8682   6.045  11.759  19.935 -0.0046  0.3253  0.2344
 1879S        S 8683  10.639   4.943  14.688  0.2233 -0.2523  0.3350
 1880S        S 8684   1.846   6.520  26.556 -0.3157  0.5144  0.3588
 1881S        S 8685   7.003   1.558  31.765 -0.1079 -0.1287  0.2946
 1882S        S 8686   9.107   5.580  13.011  0.4202 -0.2685  0.1674
 1883S        S 8687   8.023   1.783   5.553 -0.4479 -0.2668 -0.2069
 1884S        S 8688   4.624   8.738  17.799 -0.4537 -0.0105 -0.4715
 1885S        S 8689   6.603  11.012  23.874  0.6216  0.4213 -0.1053
 1886S        S 8690  11.372  11.926  23.886  0.1331 -0.2898  0.1579
 1887S        S 8691  11.094   6.576  20.568 -0.1829  0.3056 -0.1164
 1888S        S 8692   4.404   8.878  18.786 -0.0218  0.0798 -0.3069
 1889S        S 8693  11.795   4.081  18.652  0.2298 -0.4544  0.2184
 1890S        S 8694   0.124  12.312  23.181 -0.0949 -0.1748 -0.4294
 1891S        S 8695   6.145   9.128  18.697  0.3145 -0.3718  0.8083
 1892S        S 8696   7.012   1.859  19.328 -0.3757  0.6552  0.0856
 1893S        S 8697   8.983   3.897  16.921  0.2540  0.4876 -0.0894
 1894S        S 8698   7.535   5.301  17.909  0.3342 -0.4261 -0.2656
 1895S        S 8699   7.306   3.099  13.485  0.0158 -0.4255  0.2573
 1896S        S 8700  11.190   2.229  14.803 -0.0784  0.2119  0.3685
 1897S        S 8701   3.111   8.468  29.855 -0.7623  0.0555  0.2317
 1898S        S 8702   2.656  11.708  12.550  0.0247  0.2178 -0.1304
 1899S        S 8703   4.009   8.266  17.410  0.6284 -0.1275  0.4074
 1900S        S 8704  10.890   4.003  23.815 -0.1248 -0.3484 -0.0142
 1901S        S 8705   1.392  12.123  27.807  0.0735 -0.1365 -0.4074
 1902S        S 8706   4.158   6.600  19.702 -0.5828  0.4111 -0.2563
 1903S        S 8707   3.990   1.454  15.734 -0.1962  0.1552 -0.2120
 1904S        S 8708  12.027   2.770  22.728  0.4757  0.3227  0.3134
 1905S        S 8709   9.269   5.417  17.006 -0.1991 -0.0188 -0.0712
 1906S        S 8710   9.850   3.643  29.882  0.0041  0.6929  0.3862
 1907S        S 8711  12.317   5.278  23.930  0.0811 -0.1974 -0.0356
 1908S        S 8712  10.169   7.721  11.093  0.1265 -0.3409 -0.1083
 1909S        S 8713   3.940  11.490  15.821 -0.5793 -0.1850  0.6433
 1910S        S 8714   5.092   3.710  12.072  0.2489  0.1306  0.2059
 1911S        S 8715   8.109   5.888  12.283  0.3132 -0.2736  0.1248
 1912S        S 8716  10.977   7.431  18.805 -0.1744  0.1976  0.0983
 1913S        S 8717   8.593   3.503  12.211 -0.2113  0.0753 -0.2092
 1914S        S 8718   6.724   8.342  14.624  0.1745 -0.1881 -0.0563
 1915S        S 8719   4.892   7.667  21.468  0.3742  0.5349 -0.3162
 1916S        S 8720   6.710   9.988  30.936  0.0477 -0.2014  0.0374
 1917S        S 8721   1.007   9.119  30.062 -0.0199  0.7037 -0.0583
 1918S        S 8722   5.516  11.105  22.423  0.0256  0.1835  0.3204
 1919S        S 8723   8.898   3.965  14.795  0.4090 -0.0898  0.4330
 1920S        S 8724   4.736   2.911  25.303 -0.2688 -0.2588 -0.2933
 1921S        S 8725  10.845   2.561  16.939  0.5379  0.0415 -0.4795
 1922S        S 8726   7.581   7.491  18.411 -0.1594 -0.6801  0.2114
 1923S        S 8727   9.625   1.231  18.437 -0.5262  0.2521 -0.1569
 1924S        S 8728   3.115   9.064  19.017 -0.3565 -0.0840 -0.0902
 1925S        S 8729   9.301   5.902  15.955  0.1479  0.2435 -0.2454
 1926S        S 8730   9.424   8.100  24.166  0.4933 -0.3641  0.0814
 1927S        S 8731   9.141   9.346  13.149  0.0975  0.2083 -0.2348
 1928S        S 8732   7.361   3.889   5.973  0.0528  0.2891  0.0970
 1929S        S 8733   5.929   2.929  14.224 -0.3523 -0.3223  0.0311
 1930S        S 8734   4.236   7.215  29.429  0.1909 -0.4236  0.4720
 1931S        S 8735   4.023   2.446  26.434  0.9632  0.0442  0.0437
 1932S        S 8736   4.477  10.242  20.166 -0.0639 -0.0602 -0.1335
 1933S        S 8737  11.784   3.253  16.733 -0.4810 -0.1666  0.1418
 1934S        S 8738   1.505   5.346  28.377  0.3112 -0.0546 -0.3886
 1935S        S 8739   9.594  10.553  17.673 -0.2473 -0.0144 -0.2418
 1936S        S 8740   9.331   5.755  15.019  0.0974 -0.1450 -0.2232
 1937S        S 8741   4.957   9.022  13.970 -0.1507 -0.2989  0.5952
 1938S        S 8742   3.725   9.365  15.450  0.4518  0.3217  0.6367
 1939S        S 8743  10.896   5.077  27.548 -0.5762  0.3403  0.4636
 1940S        S 8744   9.079   5.181  28.143 -0.2514 -0.2564 -0.0443
 1941S        S 8745   1.021   6.401  18.047  0.0164  0.3711  0.1279
 1942S        S 8746  10.028  11.868  19.606 -0.0106  0.1881 -0.5445
 1943S        S 8747   7.091  10.158  19.875  0.4996  0.1924 -0.2167
 1944S        S 8748  10.128   3.242  31.595 -0.6590 -0.2035 -0.4442
 1945S        S 8749   0.646   1.750  20.600  0.0798  0.0277  0.5271
 1946S        S 8750   5.444   6.934  17.687  0.3914  0.1812 -0.5647
 1947S        S 8751   6.206   4.962  19.752  0.0852  0.4281  0.4437
 1948S        S 8752   7.580   6.368  26.398 -0.5504 -0.1971 -0.1176
 1949S        S 8753   5.871  11.958  13.709 -0.2799  0.0535 -0.0320
 1950S        S 8754   4.024   0.726  48.860  0.0575 -0.0541  0.5491
 1951S        S 8755   3.637   7.050  16.574 -0.0141  0.0276 -0.3226
 1952S        S 8756   7.287   9.870  13.028  0.0818  0.0285  0.0148
 1953S        S 8757   8.444   5.175  21.821 -0.2088  0.7307  0.1976
 1954S        S 8758   5.705   4.452  24.747 -0.2741  0.2473  0.0381
 1955S        S 8759  10.323   5.179  26.537 -0.8560  0.1240  0.3035
 1956S        S 8760   7.895  10.018  17.651 -0.1977  0.0416 -0.2679
 1957S        S 8761   6.127   1.980  23.697  0.2198 -0.0293 -0.0344
 1958S        S 8762   9.099   6.196  23.592  0.0174  0.0412 -0.1505
 1959S        S 8763  12.251   2.030  27.432 -0.1384  0.1263 -0.0182
 1960S        S 8764  10.972   5.194  14.244  0.4123  0.1478 -0.0500
 1961S        S 8765  11.314   9.718  18.216  0.0118  0.6593  0.0509
 1962S        S 8766   3.429   3.797  12.229 -0.0112 -0.4297  0.2463
 1963S        S 8767  10.194   3.705  15.111  0.0607 -0.0889 -0.1835
 1964S        S 8768   8.501   2.770  17.750  0.2949  0.3961  0.4942
 1965S        S 8769  11.264   6.394  21.405 -0.2737 -0.2579  0.0342
 1966S        S 8770   9.164   0.382  17.552 -0.2839 -0.4124 -0.2249
 1967S        S 8771   9.995   5.599  15.825 -0.1635 -0.2557 -0.0420
 1968S        S 8772   6.983   1.277  16.002 -0.5634 -0.1900 -0.4206
 1969S        S 8773   7.722   2.711  15.203 -0.2433  0.2975  0.1035
 1970S        S 8774   2.254  11.988  24.580  0.1460 -0.3118 -0.0587
 1971S        S 8775   1.306  12.181  26.137 -0.0798 -0.3413  0.2983
 1972S        S 8776   9.789   9.158  27.036 -0.0855 -0.6810  0.1096
 1973S        S 8777   4.098   7.763  20.593 -0.0302  0.3485  0.0293
 1974S        S 8778   4.485   9.610  20.963 -0.0009 -0.1589 -0.0086
 1975S        S 8779   8.087   7.236  20.016 -0.0366  0.4020  0.2636
 1976S        S 8780   4.599   6.546  26.551  0.4291 -0.3143 -0.6588
 1977S        S 8781   9.149   6.751  21.371  0.1705  0.2455 -0.2386
 1978S        S 8782   2.641   6.335  16.083  0.0027  0.1921  0.4579
 1979S        S 8783   7.316  11.696  20.399  0.0131 -0.0859  0.0320
 1980S        S 8784  10.409  12.315  49.405  0.0978  0.3646  0.1490
 1981S        S 8785   5.439   1.911  25.320  0.1072 -0.1365 -0.2538
 1982S        S 8786   0.011   0.103  17.278 -0.3796  0.2068 -0.5240
 1983S        S 8787  10.108   4.807  19.403 -0.2979 -0.0048 -0.0650
 1984S        S 8788   2.140   2.661  17.521 -0.3532  0.5728  0.0054
 1985S        S 8789   7.194   5.550  37.100  0.1758  0.5522  0.0106
 1986S        S 8790   7.610   3.368  28.419  0.0862  0.7161  0.0507
 1987S        S 8791   5.283   2.857  25.589  1.0079  0.0754  0.0115
 1988S        S 8792   7.261   8.217  19.434 -0.0259  0.1495  0.1822
 1989S        S 8793   6.373   2.903  28.823 -0.0418 -0.2283 -0.7053
 1990S        S 8794   7.115   9.330  32.203 -0.0041  0.8290 -0.0230
 1991S        S 8795   8.993   7.810  15.162  0.2498  0.0006  0.0778
 1992S        S 8796   7.189   2.188  18.875  0.0467 -0.4072  0.0313
 1993S        S 8797   4.078   2.388  14.261  0.4148 -0.2541  0.2333
 1994S        S 8798   2.238  11.858  26.750  0.4882  0.0995  0.5717
 1995S        S 8799   0.829   8.364  27.817 -0.4100 -0.4787  0.4131
 1996S        S 8800   8.456   1.678  27.105  0.5395 -0.2763  0.4513
 1997S        S 8801  10.902   7.154  15.057 -0.8157  0.4045  0.2821
 1998S        S 8802  11.479   0.909  18.029 -0.1612 -0.6295  0.1064
 1999S        S 8803   6.888   9.219  19.519  0.3071 -0.0140 -0.0841
 2000S        S 8804   1.356  10.246  17.899  0.6219  0.3306 -0.6310
 2001S        S 8805   5.767   1.570  21.446 -0.4745 -0.2732  0.1624
 2002S        S 8806   9.674  10.486  27.067 -0.4019 -0.1366  0.3603
 2003S        S 8807  10.287   9.220  18.428  0.6305  0.7341  0.4535
 2004S        S 8808   2.402   3.240  24.032 -0.6475 -0.1348 -0.0298
 2005S        S 8809   1.871   4.088  22.294 -0.3683  0.2056 -0.4356
 2006S        S 8810   2.279  11.826  31.541 -0.5922 -0.2428 -0.5509
 2007S        S 8811  11.271   7.772  26.819 -0.1484 -0.1726  0.8768
 2008S        S 8812   4.681   2.975  29.912 -0.1575 -0.0248  0.1818
 2009S        S 8813   6.082   4.890  18.204 -0.6273 -0.1268 -0.5091
 2010S        S 8814   0.562   8.575  22.186 -0.2819 -0.0638  0.0344
 2011S        S 8815   0.292   3.934  12.890  0.0448  0.1438  0.1071
 2012S        S 8816   3.032  10.157  13.671 -0.0032  0.3063  0.1089
 2013S        S 8817   0.884   3.773  25.322  0.2436 -0.4055 -0.4802
 2014S        S 8818   8.324   3.408  45.693  0.0865 -0.3108  0.2322
 2015S        S 8819   3.729   2.687  21.382 -0.2895 -0.0613 -0.1384
 2016S        S 8820   4.942   9.854  24.208  0.2345  0.1541 -0.0140
 2017S        S 8821   5.788   9.613  10.359  0.0597  0.1515 -0.5378
 2018S        S 8822  11.268   1.936  16.446 -0.1224  0.4129  0.7917
 2019S        S 8823   3.082   7.015  30.637  0.4710  0.2373 -0.3051
 2020S        S 8824   4.011   8.752  29.022  0.1880 -0.5323 -0.2449
 2021S        S 8825  11.104   4.355  30.034 -0.2224  0.6225  0.0625
 2022S        S 8826   2.295   3.838  26.280 -0.1796 -0.3366  0.1562
 2023S        S 8827   6.619   0.817  12.869 -0.1787 -0.0483  0.1978
 2024S        S 8828   1.603   6.870  25.648  0.2087 -0.7174 -0.0478
 2025S        S 8829   3.189  11.600  26.664  0.0251  0.2366  0.2699
 2026S        S 8830  10.759   6.232  14.705 -0.0765 -0.4505  0.1031
 2027S        S 8831   7.269   1.409  29.402 -0.9004 -0.0470 -0.2610
 2028S        S 8832   0.087   7.971  16.349  0.2024  0.6793  0.3768
 2029S        S 8833   4.931   8.329  29.242  0.4502  0.0450  0.0594
 2030S        S 8834   7.010   3.503  25.647 -0.0502  0.5097 -0.1271
 2031S        S 8835   6.662   8.230  12.817 -0.2706 -0.3640  0.5824
 2032S        S 8836   4.953   8.174  17.032  0.2500 -0.0804 -0.0054
 2033S        S 8837   0.101   7.693  13.544  0.4296 -0.3487  0.1037
 2034S        S 8838   5.718   1.978  31.259  0.2758  0.2447 -0.0257
 2035S        S 8839   7.834  11.769  26.869  0.4993 -0.1487 -0.2160
 2036S        S 8840   2.465   2.393  17.847 -0.2469 -0.0129  0.3324
 2037S        S 8841   0.936   6.756  21.671 -0.1573  0.3111  0.0775
 2038S        S 8842   1.941   9.077  11.459 -0.0328 -0.1164 -0.1242
 2039S        S 8843   0.287   1.541  12.664  0.2494 -0.2529  0.3719
 2040S        S 8844   0.453   5.376  12.351 -0.1779 -0.1548 -0.2772
 2041S        S 8845   3.546  12.024  20.857  0.2211 -0.5542 -0.1893
 2042S        S 8846   5.878   9.080  14.420 -0.2184  0.4031 -0.1478
 2043S        S 8847   5.188   8.362   5.393  0.3057  0.3491  0.0477
 2044S        S 8848   0.828   3.975  16.294 -0.0397  0.1322 -0.0642
 2045S        S 8849   5.895   3.500  13.721  0.1289 -0.0647  0.1497
 2046S        S 8850   3.775   6.518   4.451 -0.2343  0.2872 -0.0117
 2047S        S 8851  10.194   7.319  16.954  0.5133  0.2416  0.6897
 2048S        S 8852   4.821   1.556  15.030  0.1315  0.1724  0.2014
 2049S        S 8853   7.796   6.171  25.954 -0.0592  0.0039  0.3552
 2050S        S 8854   5.988   1.051  14.299 -0.4192 -0.3052 -0.4299
 2051S        S 8855  10.703   6.720  14.924  0.1601 -0.0010  0.0402
 2052S        S 8856   6.299  11.161  18.605 -0.0744  0.5669 -0.2588
 2053S        S 8857   7.395   7.553  23.812 -0.0377 -0.2014  0.3335
 2054S        S 8858   9.740   5.831  19.777  0.0857 -0.1640  0.1447
 2055S        S 8859   2.064   4.487  13.887  0.1927  0.1365  0.4527
 2056S        S 8860   6.686   6.314  22.314 -0.0328  0.0514 -0.2797
 2057S        S 8861   5.405   0.290  14.127 -0.2110  0.8238  0.3583
 2058S        S 8862   0.418  11.894  16.721  0.3756 -0.2077 -0.0333
 2059S        S 8863   9.536   1.154  21.172 -0.1067  0.5871 -0.5021
 2060S        S 8864   6.268   2.770  16.555 -0.6992 -0.7593 -0.0261
 2061S        S 8865   3.637   5.464  25.804 -0.0533 -0.1679  0.0644
 2062S        S 8866   2.801  11.297  22.087  0.1380 -0.1640 -0.2698
 2063S        S 8867   5.892  12.357  26.000  0.5468  0.3127  0.1055
 2064S        S 8868   6.914   6.943  17.296 -0.2452 -0.0302 -0.2950
 2065S        S 8869  11.538   8.543  20.882 -0.4060  0.4170  0.2678
 2066S        S 8870   9.298   3.701  25.444  0.0139  0.1382 -0.4347
 2067S        S 8871   4.615   0.540  14.482  0.3564  0.1408 -0.2865
 2068S        S 8872  11.680   4.100  20.837 -0.3669 -0.3476 -0.1181
 2069S        S 8873   1.044   0.045  21.964  0.2059 -0.8666 -0.0011
 2070S        S 8874   5.005   7.515  17.253  0.2337 -0.0388 -0.1688
 2071S        S 8875   9.891   6.491  29.672 -0.3361 -0.1192 -0.1801
 2072S        S 8876   9.819   0.650  25.648  0.3229  0.1563  0.5496
 2073S        S 8877   9.115   6.946  28.586 -0.4059 -0.7165  0.2508
 2074S        S 8878  11.912   3.300  11.911  0.1332  0.4115 -0.0220
 2075S        S 8879  11.906   1.279  23.219 -0.3729  0.2128 -0.3591
 2076S        S 8880   9.710   8.059  25.036 -0.1305 -0.3341 -0.4585
 2077S        S 8881   6.323   3.083  25.285 -0.1704 -0.0053  0.2355
 2078S        S 8882   9.804   4.247  27.330 -0.4182 -0.1254 -0.0931
 2079S        S 8883   9.393   1.189  29.111  0.3240 -0.2690 -0.4450
 2080S        S 8884   3.323   9.530  31.355  0.0167  0.5577  0.0290
 2081S        S 8885   3.347   9.717  16.665 -0.4824  0.1537 -0.6119
 2082S        S 8886   7.613  12.084  14.210  0.0511  0.2258  0.2847
 2083S        S 8887   7.529   3.262  12.159 -0.6868  0.6485  0.0851
 2084S        S 8888   0.391  11.350  14.759  0.4540 -0.0427 -0.0196
 2085S        S 8889   8.909   8.118  12.316 -0.0143 -0.0048 -0.3988
 2086S        S 8890  12.090   8.771  25.390  0.2812  0.0624  0.4764
 2087S        S 8891   7.463   1.651  25.851  0.3108 -0.3436  0.0937
 2088S        S 8892  11.170   1.956  19.887 -0.0228  0.2915  0.1984
 2089S        S 8893  12.246  10.965  25.451  0.0050  0.0624 -0.1371
 2090S        S 8894   0.034   0.309  18.717 -0.1483  0.3170  0.4270
 2091S        S 8895  11.252   7.207  15.465  0.6677 -0.3818  0.1391
 2092S        S 8896  11.732  10.110  25.533  0.2442  0.3180 -0.2518
 2093S        S 8897   5.229  11.708  11.314 -0.1597  0.2565 -0.1135
 2094S        S 8898   0.839   8.051  15.254 -0.1397 -0.3038  0.1414
 2095S        S 8899   2.899   4.578  27.354  0.6082 -0.7732 -0.4129
 2096S        S 8900   6.056   2.878  21.968  0.0521 -0.2484 -0.1463
 2097S        S 8901   4.369   4.901  19.671  0.3576 -0.0856  0.0723
 2098S        S 8902   7.229  12.107  12.988  0.2649 -0.4493 -0.3816
 2099S        S 8903   6.153   7.344  11.878  0.5366 -0.3462 -0.5663
 2100S        S 8904   6.683   2.090  25.767 -0.3295 -0.4133 -0.1217
 2101S        S 8905  12.001   8.032  24.080 -0.1799 -0.1978 -0.4901
 2102S        S 8906  10.459   8.166   4.369 -0.2147  0.0533  0.2774
 2103S        S 8907  10.900   2.120  27.392  0.4877  0.6117 -0.1749
 2104S        S 8908  11.636   0.653  33.004 -0.6085  0.1338 -0.4238
 2105S        S 8909   4.997  10.924  11.604 -0.0503  0.0936  0.0906
 2106S        S 8910   2.190   3.364  21.503  0.5205  0.0464 -0.1840
 2107S        S 8911  11.015   5.308  11.472  0.3548  0.1275  0.0900
 2108S        S 8912   7.036   4.679  12.577  0.0983 -0.0288 -0.1705
 2109S        S 8913   8.141   6.695  18.761 -0.6683 -0.0686  0.5246
 2110S        S 8914  11.223   3.725  19.073  0.4831  0.2715  0.3604
 2111S        S 8915   2.101   0.856  21.628  0.2692 -0.2280 -0.0408
 2112S        S 8916   6.790  11.680  11.294 -0.4236  0.1242  0.0693
 2113S        S 8917   6.775   7.411  21.843 -0.3852 -0.3678 -0.1075
 2114S        S 8918   9.349  11.736  29.675  0.1750 -0.0876 -0.0141
 2115S        S 8919  11.132   0.655  27.345 -0.2811 -0.1526  0.1293
 2116S        S 8920   4.611   0.385  16.284 -0.1748 -0.2557  0.2063
 2117S        S 8921  11.081   1.379  11.424  0.2865 -0.1660 -0.2270
 2118S        S 8922   8.151   1.072  23.769 -0.1220  0.1863 -0.2848
 2119S        S 8923   6.324  12.032  12.968  0.1375  0.1154 -0.2878
 2120S        S 8924   4.948   0.478  24.281 -0.0200 -0.2973 -0.5126
 2121S        S 8925   1.568   2.515  17.712 -0.6032 -0.1118 -0.1967
 2122S        S 8926   4.848   8.319  33.401  0.4129  0.1355  0.3260
 2123S        S 8927  11.198   9.470  26.995  0.6160 -0.3979 -0.2518
 2124S        S 8928   2.882  10.877  17.819  0.1310 -0.2716 -0.2727
 2125S        S 8929  10.874   5.218  30.113  0.4612  0.5265  0.3197
 2126S        S 8930   8.525   8.201  30.107  0.1358 -0.3187 -0.2036
 2127S        S 8931   4.592  10.847  12.633  0.0435  0.0981  0.0509
 2128S        S 8932   9.458   2.332  22.674 -0.2206  0.5177  0.1821
 2129S        S 8933   1.410   1.336  21.744 -0.5242 -0.2305  0.1678
 2130S        S 8934   3.504   4.105  18.399 -0.2125 -0.1593  0.0566
 2131S        S 8935   0.338   5.066  20.567  0.1200  0.0567  0.4115
 2132S        S 8936   3.673  11.682  12.121  0.2164  0.1437 -0.0702
 2133S        S 8937   0.397  12.141  19.077  0.3073  0.3778 -0.0608
 2134S        S 8938   2.727   8.012  13.496  0.0941  0.2735  0.1218
 2135S        S 8939  12.009  11.699  18.559  0.0282  0.6524 -0.8465
 2136S        S 8940   7.224   8.946  21.968  0.1945  0.1751  0.4017
 2137S        S 8941   1.331   1.371  16.258  0.1451 -0.1512  0.3089
 2138S        S 8942   2.450   5.512  24.409  0.0351  0.3554  0.2952
 2139S        S 8943   7.265   4.676  16.782  0.0232  0.6481  0.0776
 2140S        S 8944   6.050  10.534  18.075 -0.1813  0.0106  0.2520
 2141S        S 8945  11.512   9.189  24.430  0.4451  0.3046 -0.2125
 2142S        S 8946  10.065   5.322  19.669 -0.2439 -0.2021  0.2735
 2143S        S 8947   1.925   4.042  26.579  0.4431  0.1576 -0.0930
 2144S        S 8948   7.245   1.943  16.564  0.0348 -0.4423 -0.1449
 2145S        S 8949   9.094  11.324  28.602  0.2831  0.0367 -0.3062
 2146S        S 8950   2.440   2.138  19.943 -0.4014 -0.4924 -0.5930
 2147S        S 8951  10.182   0.510  12.128  0.1686 -0.3225  0.2733
 2148S        S 8952   7.459   3.525  19.062 -0.2691 -0.4172 -0.2267
 2149S        S 8953  11.180   2.437  20.756  0.3830 -0.1133 -0.5858
 2150S        S 8954   7.899   7.807  21.915 -0.4855  0.0958  0.2843
 2151S        S 8955   2.044   4.798  14.275  0.3561 -0.5015  0.1218
 2152S        S 8956   9.020   1.277  25.677 -0.3765  0.2258 -0.2304
 2153S        S 8957   0.708   8.684  16.198 -0.2597  0.3440  0.0281
 2154S        S 8958   9.698   8.249  32.031  0.5430  0.5056  0.1520
 2155S        S 8959  10.542   2.243  14.224  0.2160 -0.2044  0.1148
 2156S        S 8960   6.521  10.963  28.044  0.1842 -0.3361 -0.2310
 2157S        S 8961  11.218  10.494  17.512 -0.3101 -0.3431  0.2104
 2158S        S 8962   9.312   4.114  19.114 -0.1484 -0.3524  0.6003
 2159S        S 8963   0.336   7.182  25.734 -0.0402 -0.1344 -0.2983
 2160S        S 8964  11.258   7.968  19.939  0.4624 -0.6043 -0.0704
 2161S        S 8965   7.086   3.759  16.844 -0.1752  0.2871 -0.4225
 2162S        S 8966  11.050   4.106  12.145  0.1369 -0.2712  0.0890
 2163S        S 8967   8.605   3.196  29.492 -0.2142 -0.8234  0.0722
 2164S        S 8968   1.646  10.087  21.379  0.1499 -0.2207 -0.2749
 2165S        S 8969  11.459   3.920  11.832 -0.2993 -0.0890  0.2971
 2166S        S 8970   5.567   4.578  12.920  0.1482 -0.2215 -0.1452
 2167S        S 8971  10.491   8.049  12.429  0.0411  0.0009 -0.2962
 2168S        S 8972   6.656   5.455  16.986 -0.2377 -0.1611 -0.0020
 2169S        S 8973  11.057   5.364  21.042 -0.2019  0.4076 -0.3169
 2170S        S 8974   5.222   3.933  27.632  0.2587 -0.0100 -0.2797
 2171S        S 8975   7.142   8.045  27.514 -0.4353  0.3683 -0.3527
 2172S        S 8976   4.291  11.698  19.390 -0.0264  0.3844 -0.0074
 2173S        S 8977  10.400   3.173  30.952  0.0100  0.6330 -0.1317
 2174S        S 8978   6.458   5.274  16.422  0.1914  0.2345 -0.6005
 2175S        S 8979   8.084   3.232  17.629 -0.1402  0.3803 -0.2234
 2176S        S 8980  12.082   7.323  21.972  0.4485  0.1928 -0.2261
 2177S        S 8981  11.592   4.824  25.699  0.2431 -0.0463  0.4963
 2178S        S 8982   8.779   4.027  28.565  0.0472 -0.2690 -0.4216
 2179S        S 8983   3.127   6.281  22.410  0.1680  0.0096 -0.6114
 2180S        S 8984   3.024   5.722  14.361  0.0575 -0.4540  0.3164
 2181S        S 8985   4.799   4.060  16.986 -0.4318  0.2062 -0.3421
 2182S        S 8986  10.311   2.975  27.278  0.1760  0.5618 -0.2768
 2183S        S 8987   8.330   8.511  19.783  0.1266 -0.1138  0.1635
 2184S        S 8988   5.711   0.604  30.147  0.1092 -0.3201 -0.6582
 2185S        S 8989   0.535  12.184  17.898  0.4344 -0.0421  0.1730
 2186S        S 8990   7.139   0.681  12.669 -0.1562  0.1113  0.4080
 2187S        S 8991   3.026   3.421  16.594  0.2083  0.1158  0.4537
 2188S        S 8992   3.612  12.350  17.267 -0.0966  0.1453 -0.0070
 2189S        S 8993   7.714   5.291  19.088 -0.0613 -0.3423 -0.3714
 2190S        S 8994  11.850   6.419  16.733  0.1610 -0.3897 -0.1935
 2191S        S 8995   2.434   1.703  25.595  0.5403  0.3422 -0.5090
 2192S        S 8996   7.914  10.926  16.551 -0.2040 -0.0421  0.2989
 2193S        S 8997   7.206  12.189  14.520 -0.5171 -0.3531 -0.2478
 2194S        S 8998   0.947  10.891  30.956 -0.1450 -0.1857  0.1131
 2195S        S 8999   6.230   8.565  12.209 -0.0263 -0.0899  0.5279
 2196S        S 9000   8.766   8.604  25.220  0.4028  0.1222  0.4530
 2197S        S 9001   0.980   4.728  23.869 -0.1936  0.0059  0.2127
 2198S        S 9002   6.022   4.658  21.545 -0.5578 -0.5025 -0.1135
 2199S        S 9003  10.632   3.069  14.700 -0.2186  0.1336  0.3444
 2200S        S 9004   9.579   3.827  25.816 -0.0734  0.2887 -0.1466
 2201S        S 9005   7.499   0.793  12.954 -0.1170  0.0199  0.2807
 2202S        S 9006   7.883  11.194  24.929  0.1734  0.4537 -0.8299
 2203S        S 9007  12.323   4.147  29.585  0.0183 -0.3180  0.2465
 2204S        S 9008   2.880   6.538  20.302 -0.2403 -0.1652 -0.1366
 2205S        S 9009   2.372   4.941  19.359  0.4518 -0.2885 -0.2293
 2206S        S 9010  11.351  11.711  19.262 -0.0468 -0.1735 -0.0367
 2207S        S 9011   4.110   3.991  24.936 -0.0604 -0.2241 -0.0483
 2208S        S 9012   1.468   8.110  29.459  0.4967  0.4252 -0.4089
 2209S        S 9013   7.803   1.346  18.950  0.0589 -0.2073  0.7940
 2210S        S 9014   7.581   9.063  13.321 -0.2647 -0.1760  0.0928
 2211S        S 9015   1.048   4.117  31.852  0.1608 -0.2058  0.5452
 2212S        S 9016  10.572   3.316  16.585 -0.1249  0.1744  0.2136
 2213S        S 9017   5.095   8.614  23.163 -0.1947  0.3163  0.4552
 2214S        S 9018   9.965   7.460  11.707  0.0347  0.0163  0.1769
 2215S        S 9019   8.177   5.082  19.184  0.3073 -0.4113  0.2779
 2216S        S 9020   7.125   0.276  30.253  0.5414  0.1703 -0.3553
 2217S        S 9021   1.070   4.256  14.296 -0.5011  0.1980  0.1843
 2218S        S 9022   9.107   3.111  11.632  0.2685  0.0909  0.1068
 2219S        S 9023   9.371   6.001  12.890 -0.3579  0.0479 -0.3223
 2220S        S 9024   0.564   3.820  30.648 -0.7288 -0.9751 -0.2824
 2221S        S 9025   0.608   4.079  20.252  0.2437  0.1244  0.0676
 2222S        S 9026  11.338   4.937  28.857 -0.5174 -0.1104  0.0088
 2223S        S 9027  10.290  12.265  32.664  0.0907 -0.0241  0.3586
 2224S        S 9028   2.097   8.030  31.326  1.1043 -0.2799  0.1436
 2225S        S 9029   6.898   6.829  22.302 -0.4443 -0.0397  0.1525
 2226S        S 9030  11.133   0.293  20.154  0.0721  0.4876  0.3346
 2227S        S 9031   4.041  11.139  21.835  0.1453  0.5530  0.0462
 2228S        S 9032   3.614   2.355  18.423 -0.0843  0.1099 -0.0410
 2229S        S 9033   3.268   3.203  26.688 -0.4652  0.2167  0.3728
 2230S        S 9034   1.184  10.162  18.485 -0.2943 -0.0491 -0.0239
 2231S        S 9035  11.096   3.431   8.693  0.3165  0.0031  0.3860
 2232S        S 9036  11.011   5.523  15.494 -0.2498  0.2092 -0.0115
 2233S        S 9037   7.371   0.576  22.658  0.1991 -0.4752 -0.0732
 2234S        S 9038   8.490   9.544  13.747 -0.2060 -0.2567  0.0562
 2235S        S 9039  11.842   9.382  14.235  0.2132  0.3148 -0.3929
 2236S        S 9040   1.670   5.854  24.452 -0.3306 -0.2355  0.4165
 2237S        S 9041   8.569  10.304  14.424  0.1185  0.3685  0.2658
 2238S        S 9042   8.708   5.934  25.424  0.0440 -0.0636  0.3425
 2239S        S 9043   5.000   1.749  23.552  0.0546 -0.3573  0.1121
 2240S        S 9044  10.365  11.313  17.827  0.0424  0.4482 -0.0190
 2241S        S 9045  10.379   6.740  28.852 -0.0242  0.6366 -0.0047
 2242S        S 9046   8.446   6.225  25.734  0.2988  0.1735  0.0669
 2243S        S 9047   5.450   8.450  17.890  0.3112  0.4494 -0.4370
 2244S        S 9048   2.952   9.228  24.648 -0.7202  0.1209 -0.0508
 2245S        S 9049   6.197   0.334  23.900  0.2080  0.4898  0.0504
 2246S        S 9050  11.291   2.591  29.524 -0.0576 -0.3455  0.9392
 2247S        S 9051   1.538  12.161  17.565 -0.2474 -0.1502 -0.0726
 2248S        S 9052   9.160   3.879  16.006  0.1783 -0.1855 -0.0592
 2249S        S 9053   3.563   4.520  12.141  0.1511 -0.3913 -0.0576
 2250S        S 9054  11.288   3.369  30.398 -0.5003  0.1786 -0.6237
 2251S        S 9055  11.251   1.980  28.303  0.3559 -0.2337  0.2803
 2252S        S 9056   9.142   5.277  23.476 -0.1633 -0.4286  0.2727
 2253S        S 9057  10.605   3.818  25.972  0.4122 -0.1688 -0.5465
 2254S        S 9058   1.150  10.979  11.489 -0.0316 -0.1640  0.3067
 2255S        S 9059   2.268   0.456  18.403  0.0048  0.2405  0.2518
 2256S        S 9060  11.216   6.435  15.489 -0.1669  0.0925  0.0797
 2257S        S 9061   4.254   3.739  16.751 -0.0437  0.1270  0.1318
 2258S        S 9062   3.042   0.090  19.054 -0.6354  0.1626 -0.0083
 2259S        S 9063   3.624  10.619  19.059  0.3204  0.2214 -0.1311
 2260S        S 9064   5.148  11.519  23.832 -0.1755 -0.2385 -0.1198
 2261S        S 9065   8.867  11.469  18.213 -0.4590 -0.1640  0.1645
 2262S        S 9066   0.176   6.419  14.766  0.6129 -0.0696 -0.3984
 2263S        S 9067   1.827   5.307  19.021  0.2930 -0.0162  0.1406
 2264S        S 9068   1.078   5.714  20.067 -0.0269  0.2511 -0.2312
 2265S        S 9069   9.760  11.228  27.680 -0.3882 -0.0808 -0.3289
 2266S        S 9070   8.453   7.611  19.973 -0.3544  0.1932  0.0097
 2267S        S 9071  11.087  12.295  42.979  0.0951  0.0031  0.0883
 2268S        S 9072   4.864   1.337  16.189 -0.5888 -0.2075  0.2357
 2269S        S 9073   4.660  11.632  23.844 -0.0483  0.0099  0.2562
 2270S        S 9074   4.565   8.191  17.624  0.3810  0.3751  0.3350
 2271S        S 9075  10.817  11.974  28.858  0.2285 -0.0017 -0.1583
 2272S        S 9076   9.044   0.990  22.671 -0.4211  0.2928  0.2325
 2273S        S 9077   7.972   3.606  26.933  0.4002  0.6201 -0.1593
 2274S        S 9078   4.091   3.931  23.348  0.2874  0.3482  0.4128
 2275S        S 9079  11.783   4.616  18.763 -0.1772 -0.4343  0.1783
 2276S        S 9080   9.157   7.979  25.282  0.0721  0.1851 -0.1929
 2277S        S 9081  11.230   0.283  14.376  0.4383  0.0779  0.0138
 2278S        S 9082   4.727   5.854  22.451  0.2594 -0.3801 -0.0483
 2279S        S 9083   3.801  12.110  11.714  0.4057  0.3901  0.3119
 2280S        S 9084   2.785   2.965  14.731  0.0208 -0.1439 -0.4066
 2281S        S 9085   4.304   9.935  18.443  0.1842  0.1142  0.3085
 2282S        S 9086   8.448   9.704  27.236  0.0387 -0.3276  0.1244
 2283S        S 9087   8.756   2.380  15.006 -0.4654 -0.0545 -0.3860
 2284S        S 9088  11.833  10.445  15.818 -0.1242 -0.0778 -0.1782
 2285S        S 9089   7.705  11.704  15.394 -0.0300 -0.4244  0.1971
 2286S        S 9090   0.169   1.546  19.785 -0.1496 -0.5607 -0.0053
 2287S        S 9091   8.903   5.501  22.867 -0.3014 -0.1875 -0.1989
 2288S        S 9092   9.303   1.460  28.697  0.1561  0.5556 -0.5424
 2289S        S 9093   8.837   1.951  14.683  0.0102 -0.0257  0.0993
 2290S        S 9094  10.053   5.182  27.390 -0.0663  0.3694 -0.2519
 2291S        S 9095   7.449   6.984  23.697  0.0875 -0.7511 -0.5396
 2292S        S 9096   8.061   1.334  17.452  0.2880  0.3955 -0.0787
 2293S        S 9097  11.851  11.093  12.742  0.1102  0.2452  0.2085
 2294S        S 9098   5.723   5.236  19.889  0.6784  0.0789 -0.2088
 2295S        S 9099   4.018   3.883  21.330 -0.0546 -0.2950  0.1755
 2296S        S 9100  11.456   9.071  14.380  0.0532 -0.1674 -0.3255
 2297S        S 9101   5.132   8.066  12.363 -0.5853  0.1305 -0.0165
 2298S        S 9102   0.684   7.568  15.587  0.0372  0.1750  0.0452
 2299S        S 9103  10.001   6.302  17.486 -0.1329  0.6145 -0.6562
 2300S        S 9104   3.929   8.163  15.446 -0.4746  0.1441 -0.1630
 2301S        S 9105   7.621   9.031  17.507  0.3495 -0.4439  0.1254
 2302S        S 9106   3.847   3.778  18.838 -0.1826  0.4801 -0.4151
 2303S        S 9107   9.927   3.291  11.927 -0.2414  0.0010  0.0411
 2304S        S 9108   8.660   2.941  16.828  0.0455 -0.2533 -0.0136
 2305S        S 9109   1.018   4.183  25.013  0.4312  0.1081 -0.0371
 2306S        S 9110   6.769   8.253  19.378  0.2531 -0.0170  0.4699
 2307S        S 9111   4.941   8.024  20.475 -0.1060 -0.3157 -0.5404
 2308S        S 9112  12.022   9.946  19.951 -0.0969 -0.3387 -0.2213
 2309S        S 9113   2.183   3.047  15.939 -0.0763  0.1208 -0.4769
 2310S        S 9114   0.935   9.684  29.348 -0.5541 -0.6093  0.6021
 2311S        S 9115   5.065   6.911  16.424  0.0087 -0.5326  0.2639
 2312S        S 9116   5.846  11.073  17.578 -0.2826 -0.1851  0.0374
 2313S        S 9117  12.047   2.748  25.560 -0.3633 -0.3667  0.1949
 2314S        S 9118   7.608  12.051  15.838 -0.0508  0.0751  0.1788
 2315S        S 9119   0.797   7.370  13.245  0.1537  0.2024 -0.4295
 2316S        S 9120  10.472  10.175  18.086 -0.2313  0.4844  0.1871
 2317S        S 9121   3.153   8.810  23.937  0.0012  0.0318  0.4156
 2318S        S 9122   8.330   8.884  25.212 -0.4689  0.0004 -0.4059
 2319S        S 9123   6.540  11.756  26.903  0.1368  0.8757 -0.1108
 2320S        S 9124  10.170   1.575  17.393  0.0482  0.1030 -0.1086
 2321S        S 9125   7.727  10.610  29.667 -0.0393  0.1786 -0.0510
 2322S        S 9126   3.742  10.552  24.842 -0.2653  0.3895  0.2529
 2323S        S 9127   4.647   2.511  14.384  0.3230  0.3577 -0.4259
 2324S        S 9128  10.176   7.685  29.954  0.0041  0.4044 -0.3582
 2325S        S 9129   8.442   4.437  27.564 -0.0078 -0.1105 -0.3922
 2326S        S 9130   0.661   7.534  12.691  0.1037  0.2287  0.0250
 2327S        S 9131  10.757  10.060  19.746  0.0097  0.0498 -0.4118
 2328S        S 9132   8.738   4.478  29.975 -0.1819  0.1802 -0.4951
 2329S        S 9133   7.953  11.124  15.656 -0.0726 -0.4312 -0.0511
 2330S        S 9134  10.264   2.959  14.341  0.1107 -0.0649  0.1312
 2331S        S 9135   7.121   9.485  23.241  0.3016 -0.2253  0.4736
 2332S        S 9136  10.607  11.708  12.649  0.5490 -0.1344  0.3759
 2333S        S 9137   9.382   8.466  26.731 -0.2735 -0.7096  0.0289
 2334S        S 9138   4.174   6.362  22.049  0.1148  0.3903  0.3806
 2335S        S 9139  10.105   5.538  15.322  0.2526  0.0445 -0.0621
 2336S        S 9140   8.122   5.954  14.071  0.0620  0.2291  0.3013
 2337S        S 9141  11.991   1.692  14.328  0.7482  0.6948  0.2484
 2338S        S 9142  10.766   2.539  21.979 -0.0980 -0.2326 -0.2743
 2339S        S 9143   5.207   5.645  21.269 -0.2383  0.0973  0.1572
 2340S        S 9144   7.874  11.244  24.001  0.3283  0.4833 -0.1049
 2341S        S 9145   9.895   0.289  14.830 -0.3799  0.1225  0.2352
 2342S        S 9146   1.448   8.268  25.111  0.4899  0.4382  0.4625
 2343S        S 9147   0.414   8.666  13.706 -0.7876  0.0748  0.1838
 2344S        S 9148   7.541  11.540  18.761  0.2836 -0.1726 -0.0696
 2345S        S 9149   2.536  10.876  30.117  0.0887 -0.1337  0.1406
 2346S        S 9150   1.840   9.469  26.694  0.1162  0.2976  0.0805
 2347S        S 9151   8.362   6.562  21.274  0.0528 -0.2688 -0.2136
 2348S        S 9152  10.726   6.188  21.060  0.1543 -0.2502  0.8003
 2349S        S 9153   1.616  10.355  27.456 -0.1839 -0.1213  0.1738
 2350S        S 9154  10.863  11.479  20.208 -0.3490  0.2476 -0.1452
 2351S        S 9155   6.960   9.970  12.198  0.3206  0.1537  0.0149
 2352S        S 9156   4.628   1.849  24.594  0.0682  0.2105 -0.2014
 2353S        S 9157   2.285   7.656  18.191  0.5110  0.2275  0.1233
 2354S        S 9158   5.385   9.943  19.686 -0.1158  0.0966  0.0613
 2355S        S 9159   4.588   6.908  16.309  0.1122  0.2374 -0.0707
 2356S        S 9160   8.973  10.369  14.111 -0.7799  0.0419  0.2989
 2357S        S 9161   8.916   0.826  18.290 -0.4556 -0.4114  0.4310
 2358S        S 9162  10.875   1.631  12.026  0.0816 -0.0837 -0.3057
 2359S        S 9163   0.500   5.447  31.291 -0.7019 -0.0425  0.0712
 2360S        S 9164  11.426   6.830  12.653  0.1377 -0.4132  0.0968
 2361S        S 9165   7.705   1.687  17.593 -0.0853 -0.5108 -0.3137
 2362S        S 9166   1.490  11.321  11.920  0.0585  0.3555  0.3315
 2363S        S 9167   8.689   8.146  12.763  0.5009  0.0825  0.2653
 2364S        S 9168   1.015   6.370  28.280 -0.0179 -1.0241 -0.2913
 2365S        S 9169   5.662   3.477  15.591 -0.2844  0.4070  0.1070
 2366S        S 9170   9.402   9.744  25.439  0.0908 -0.2194 -0.1018
 2367S        S 9171   3.678   2.725  20.019 -0.1639  0.1465  0.4730
 2368S        S 9172   9.023   0.180  27.814  0.0331  0.2410  0.1927
 2369S        S 9173   9.483  11.554  11.475 -0.1834  0.0104 -0.2007
 2370S        S 9174   4.376   7.215  24.932 -0.0772 -0.6334 -0.3064
 2371S        S 9175   2.744   0.036  22.471  0.2520  0.0429  0.0357
 2372S        S 9176   8.007   7.160  12.286 -0.0894 -0.0818 -0.4680
 2373S        S 9177   0.619   9.886  13.865  0.0630  0.0565 -0.2234
 2374S        S 9178   9.878   8.603  14.284  0.2038  0.2761 -0.2966
 2375S        S 9179   2.369   2.669  19.989 -0.4462  0.4433 -0.0182
 2376S        S 9180   4.839   0.798  22.554 -0.1819 -0.0192 -0.4187
 2377S        S 9181   5.391   0.406  15.502 -0.3045  0.3821 -0.0177
 2378S        S 9182  11.359   2.422  28.875 -0.1986 -0.2073 -0.0616
 2379S        S 9183   9.218   6.300  20.804 -0.0414 -0.2082 -0.3822
 2380S        S 9184   3.562   5.143  25.035  0.0784 -0.0320 -0.5047
 2381S        S 9185   7.118   9.455  19.054  0.5747  0.0002  0.0834
 2382S        S 9186   9.873   5.272  23.373  0.1786 -0.5562 -0.2251
 2383S        S 9187   7.306  10.238  14.582  0.0609  0.2046  0.3816
 2384S        S 9188  11.029   2.511  11.901  0.3058  0.3478 -0.3524
 2385S        S 9189   6.752   1.331  25.305  0.2051  0.4535  0.1318
 2386S        S 9190   3.553   7.950  27.842  0.1031 -0.6307 -0.3461
 2387S        S 9191   7.052  10.711  14.506 -0.1163  0.0481  0.8181
 2388S        S 9192   7.202   1.837  26.269 -0.2528  0.4289 -0.1150
 2389S        S 9193   0.443   6.679  25.886  0.0943  0.7100 -0.1915
 2390S        S 9194   2.901   9.147  15.761  0.3950  0.3601 -0.5201
 2391S        S 9195  10.413   6.338  15.752 -0.1475 -0.1952 -0.2467
 2392S        S 9196   0.726   0.701  26.081 -0.1030  0.0556 -0.7581
 2393S        S 9197   6.810   9.647  21.381 -0.0190  0.2204  0.3954
 2394S        S 9198   4.669   4.247  16.134 -0.3449  0.4048  0.2769
 2395S        S 9199   6.821   3.348  18.271  0.2122  0.1212 -0.1445
 2396S        S 9200   4.208   4.649   7.308 -0.2993  0.2781 -0.0528
 2397S        S 9201   3.841  10.393  15.716 -0.4346 -0.1458  0.0009
 2398S        S 9202   8.735  11.075  21.122  0.3719  0.6504  0.0774
 2399S        S 9203  10.111   1.876  31.592 -0.0779  0.2067  0.1054
 2400S        S 9204   5.470   9.727  22.022  0.4167  0.2508 -0.2200
 2401S        S 9205   4.498   2.106  23.365 -0.0411 -0.5013 -0.0578
 2402S        S 9206   9.558   3.902  30.199 -0.7795 -0.5599  0.2694
 2403S        S 9207   0.267   0.844  24.294 -0.2352 -0.1035 -0.1273
 2404S        S 9208   7.031   8.071  18.819 -0.2136 -0.0874  0.6585
 2405S        S 9209   6.096   8.118  23.788 -0.9481  0.1866 -0.1813
 2406S        S 9210   1.555  10.691  19.845  0.2805  0.1815 -0.4985
 2407S        S 9211   2.336   6.526  14.190 -0.5102  0.1444 -0.0795
 2408S        S 9212   5.742   3.019  25.408  0.7052  0.3408  0.0182
 2409S        S 9213  10.102   4.332  21.141  0.0891 -0.1334  0.6344
 2410S        S 9214   7.619   6.170  29.388  0.2070  0.0116  0.0652
 2411S        S 9215  11.013  10.217  25.779  0.0688  0.3359  0.0227
 2412S        S 9216   5.378   1.316  21.220  0.1553 -0.1338  0.3429
 2413S        S 9217   6.919   6.228  30.235 -0.1684  0.0946 -0.0100
 2414S        S 9218  11.849   8.867  22.446  0.6728  0.3818 -0.5580
 2415S        S 9219  12.324   0.784  22.326  0.1674 -0.0181  0.2819
 2416S        S 9220   9.083  10.965  32.014  0.7345 -0.0929  0.3598
 2417S        S 9221   9.643   2.065  30.759 -0.0262  0.1689 -0.3553
 2418S        S 9222   8.413   4.508  20.517  0.0765 -0.0387 -0.0551
 2419S        S 9223   4.773   7.728  21.920 -0.4400 -0.0231 -0.5012
 2420S        S 9224   5.129   4.128  24.198 -0.3468  0.3169 -0.7645
 2421S        S 9225   4.328   2.173  29.523  0.0218 -0.0718 -0.0617
 2422S        S 9226   2.840   2.941  15.284  0.2689  0.2382  0.1519
 2423S        S 9227   7.163   6.682  26.411  0.0020  0.1567  0.2122
 2424S        S 9228  11.900   2.791  28.269 -0.4364  0.7130 -0.1525
 2425S        S 9229  11.357   7.520  13.632 -0.0314 -0.2329  0.1803
 2426S        S 9230   4.289   7.326  18.008 -0.1010  0.3993 -0.2987
 2427S        S 9231   1.942  11.804  29.695 -0.3593 -0.0278  0.2407
 2428S        S 9232  11.450   8.474  15.988 -0.2714 -0.2809  0.1223
 2429S        S 9233   4.566   0.483  17.162 -0.0753 -0.1547 -0.2756
 2430S        S 9234   2.512  12.033  12.105  0.4465 -0.2110  0.2644
 2431S        S 9235   7.914   1.010  19.967 -0.1467 -0.2475  0.0064
 2432S        S 9236   7.811   0.463  24.594  0.7067 -0.3236 -0.1843
 2433S        S 9237  10.709   4.868  19.010 -0.1220  0.0201  0.1219
 2434S        S 9238  10.985   7.194  23.490  0.2209 -0.0062  0.1980
 2435S        S 9239   8.458   4.158  14.934  0.0255 -0.1296  0.2269
 2436S        S 9240   9.156  10.218  16.876 -0.7980  0.2421 -0.0868
 2437S        S 9241   0.581   2.224  18.135  0.2345 -0.0944  0.3638
 2438S        S 9242   1.952  11.613  30.827 -0.4053  0.0317 -0.3390
 2439S        S 9243   0.855   0.555  26.627  0.3374  0.4257  0.2895
 2440S        S 9244  11.982  11.430  13.185  0.0996  0.2865 -0.2561
 2441S        S 9245   2.925   3.308  27.335  0.4128 -0.0803  0.0578
 2442S        S 9246   6.094  12.186  21.755  0.2543  0.1522 -0.0269
 2443S        S 9247   2.989   0.445  27.844 -0.3600  0.0168  0.0852
 2444S        S 9248   6.398   3.850  21.597 -0.1650  0.0474  0.1380
 2445S        S 9249   9.038  10.176  13.628  0.1233 -0.5013  0.3069
 2446S        S 9250  11.166   5.854  23.101  0.1484  0.4840 -0.4971
 2447S        S 9251  12.195   9.901  17.341 -0.2096  0.1449 -0.2968
 2448S        S 9252  10.799   2.772  20.511  0.2338  0.0858 -0.2936
 2449S        S 9253   8.897  10.182  15.861  0.8210 -0.3259 -0.0477
 2450S        S 9254  11.006   2.995  25.823 -0.6501  0.4480 -0.6837
 2451S        S 9255  11.969   7.374  25.162  0.0168 -0.2577 -0.7052
 2452S        S 9256   3.741   5.696  18.752 -0.3074  0.0836 -0.2398
 2453S        S 9257   0.573   6.658  14.977  0.1004  0.1803  0.4085
 2454S        S 9258   8.403  11.066  21.974 -0.0765 -0.5102 -0.2443
 2455S        S 9259  11.007   3.388  29.127 -0.1772  0.1722  0.7095
 2456S        S 9260   3.439   2.348  26.732  0.1048 -0.7690 -0.1562
 2457S        S 9261  10.373   1.265  15.818  0.0864  0.0287  0.6748
 2458S        S 9262   9.832   4.060  18.758 -0.1855  0.0430  0.0935
 2459S        S 9263   2.684   6.563  22.125  0.0375 -0.2115 -0.0387
 2460S        S 9264  10.254   4.644  19.885  0.3580 -0.3431  0.3182
 2461S        S 9265   4.412  10.614  30.586 -0.0872  0.3868 -0.0558
 2462S        S 9266   8.745  12.207  26.593 -0.2907 -0.0518 -0.1425
 2463S        S 9267   1.442   9.775  12.630  0.2106  0.1082  0.2466
 2464S        S 9268   3.989   8.750  12.723 -0.0703  0.0943  0.3033
 2465S        S 9269   1.774   3.855  26.021  0.6278 -0.4647 -0.1589
 2466S        S 9270   6.002   4.030  16.290 -0.0511 -0.4259 -0.1628
 2467S        S 9271   5.179   4.069  48.765  0.3260  0.2825  0.3905
 2468S        S 9272   6.365   0.606  26.704 -0.1879 -0.0912  0.5038
 2469S        S 9273  12.045   2.151  30.631  0.0233 -0.5296  0.3263
 2470S        S 9274   7.833   4.123  11.700  0.1219  0.2979 -0.2047
 2471S        S 9275   5.101   5.302  18.581  0.1922  0.3439  0.2669
 2472S        S 9276   1.567  11.541  13.780  0.1402  0.4493 -0.2150
 2473S        S 9277   1.711   7.597  26.939  0.1122 -0.4932 -0.4233
 2474S        S 9278   3.455   0.586  12.071 -0.1136  0.4223 -0.4012
 2475S        S 9279   0.836   7.546  28.124  0.5915  0.4604 -0.3122
 2476S        S 9280   1.930   8.714  21.032  0.0518 -0.1046  0.2614
 2477S        S 9281   2.650   3.557  26.565  0.2077 -0.1476  0.0740
 2478S        S 9282   1.568   4.019  22.685 -0.1037 -0.0561 -0.1459
 2479S        S 9283   9.502   3.732  17.113  0.3165  0.0144 -0.1831
 2480S        S 9284   8.248  11.972  12.227 -0.1658 -0.2318  0.0846
 2481S        S 9285  10.027   0.513  25.159 -0.3771 -0.2322  0.0611
 2482S        S 9286   3.370   9.124  17.391  0.2392  0.3258 -0.1762
 2483S        S 9287   2.651   4.515  15.230  0.1246 -0.1438 -0.0108
 2484S        S 9288   8.092   4.104  28.330  0.1343  0.2383  0.1905
 2485S        S 9289   6.717   3.168  27.647 -0.5112  0.3169 -0.2696
 2486S        S 9290  11.076   9.354  21.232 -0.6570 -0.2355 -0.1790
 2487S        S 9291  11.058   4.193  13.969 -0.3609  0.4653 -0.5446
 2488S        S 9292   8.969   9.971  15.428  0.0791  0.1006  0.3051
 2489S        S 9293  11.175   2.493  28.234  0.3525  0.5170 -0.1895
 2490S        S 9294   5.176   3.536  48.600  0.3439  0.0500  0.9527
 2491S        S 9295   7.220   9.888  14.030  0.0729  0.2934  0.3618
 2492S        S 9296  10.538  10.819  20.586 -0.9417  0.2112  0.5369
 2493S        S 9297   2.402   0.687  30.830  0.2092  1.0089  0.6044
 2494S        S 9298   5.123   3.362  26.798 -0.1995 -0.7628 -0.0157
 2495S        S 9299   0.738  10.587  11.875 -0.3734 -0.0851 -0.2709
 2496S        S 9300   5.137   7.333  27.752 -0.4997  0.3130  0.7355
 2497S        S 9301   7.349   2.106  17.618 -0.2133  0.0527 -0.1338
 2498S        S 9302   3.149   9.985  23.886 -0.5359 -0.2187  0.0009
 2499S        S 9303   6.785   1.513  25.888 -0.2493 -0.0085 -0.3732
 2500S        S 9304   1.563   3.569  26.668  0.2631  0.0632 -0.0709
 2501S        S 9305  11.012   2.863  12.892 -0.1920  0.4587  0.0859
 2502S        S 9306   8.339   2.140  14.897 -0.3519  0.0648 -0.3642
 2503S        S 9307   6.763   8.909  24.698 -0.2687 -0.2439  0.3590
 2504S        S 9308   9.667   2.818  13.576  0.3203 -0.2611 -0.0843
 2505S        S 9309   3.533   0.334  11.576 -0.3870  0.1774 -0.1678
 2506S        S 9310   9.077   7.444  14.251  0.0560 -0.0863 -0.0794
 2507S        S 9311  10.506   0.929  14.898 -0.4836  0.7510  0.0740
 2508S        S 9312  12.053  11.903  19.848  0.6582  0.2091 -0.1339
 2509S        S 9313   3.318  10.750  16.033 -0.1162  0.3087  0.0588
 2510S        S 9314   1.928   8.216  25.237 -0.6464 -0.2537  0.1405
 2511S        S 9315   2.890   5.088  23.537  0.5398  0.5074  0.1140
 2512S        S 9316   3.337   3.410  17.119 -0.1541 -0.0936  0.0304
 2513S        S 9317   9.842   5.491  20.775  0.3123  0.0884 -0.0311
 2514S        S 9318   8.928   2.742  31.450 -0.0036 -0.1075 -0.0634
 2515S        S 9319   0.786   6.011  11.954  0.3425  0.3899  0.2397
 2516S        S 9320   2.819   2.051  16.717  0.0031  0.0434 -0.1653
 2517S        S 9321   5.532  12.101  12.445  0.3388 -0.1598 -0.4637
 2518S        S 9322   3.760   6.618  18.361  0.1119 -0.3583  0.0883
 2519S        S 9323   7.333   3.045  11.697 -0.1424  0.2603  0.0595
 2520S        S 9324   9.470   1.733  18.505 -0.3637 -0.2998 -0.9580
 2521S        S 9325   5.437   4.566  18.419  0.2442 -0.7315 -0.4203
 2522S        S 9326   3.713   9.109  14.572  0.2460 -0.0092  0.2143
 2523S        S 9327   2.468   0.436  16.468 -0.3843 -0.1593 -0.2358
 2524S        S 9328  10.822   8.491  13.856 -0.2085  0.4344  0.3949
 2525S        S 9329   9.365   0.541  25.310 -0.3169  0.5976  0.3648
 2526S        S 9330   8.652   8.762  16.040 -0.0944 -0.0448 -0.3006
 2527S        S 9331   2.331   4.145  11.903  0.2438 -0.0410  0.3281
 2528S        S 9332   6.760  10.545  17.320  0.2074  0.4017 -0.1073
 2529S        S 9333   7.198   6.358  31.129 -0.3353  0.8997  0.3181
 2530S        S 9334  12.143   1.848  26.729 -0.0897 -0.2116 -0.6800
 2531S        S 9335   8.763  10.268  18.181  0.4944 -0.1034  0.1192
 2532S        S 9336  10.409   4.434  28.348 -0.3603 -0.6581  0.0118
 2533S        S 9337  11.957   2.538  27.557  0.0777  0.1086 -0.7184
 2534S        S 9338   5.248   0.221  12.428  0.3216  0.1962  0.1378
 2535S        S 9339   3.272  10.208  18.348  0.1622 -0.4539 -0.1370
 2536S        S 9340   2.106   7.887  17.146 -0.0147 -0.4025  0.1719
 2537S        S 9341   9.105   7.631  46.176 -0.5142  0.2977  0.2663
 2538S        S 9342   7.304   8.341  22.997 -0.0773  0.6571 -0.3157
 2539S        S 9343   3.229   1.769  28.651 -0.1544 -0.0083  0.2710
 2540S        S 9344   2.221  10.703  22.882  0.2111  0.1858 -0.0380
 2541S        S 9345   2.542   3.535  32.982  0.3264 -0.2059  0.5349
 2542S        S 9346   0.523   4.968  13.815  0.3428  0.0418 -0.1541
 2543S        S 9347   9.582   8.565  12.973  0.3989 -0.1498  0.2928
 2544S        S 9348   8.500   2.522  12.232  0.0695  0.0544  0.0760
 2545S        S 9349   8.200   5.157  18.614  0.0521  0.0853  0.0451
 2546S        S 9350   1.474  10.422  15.362  0.2336 -0.1178 -0.1135
 2547S        S 9351   0.318   5.243  29.331 -0.2715  1.1220 -0.1599
 2548S        S 9352   0.240   7.322  18.879  0.4082  0.4248  0.0434
 2549S        S 9353   8.497  11.590  28.948  0.4849 -0.3065  0.3894
 2550S        S 9354   5.981   9.874  12.928  0.3825  0.3714 -0.0975
 2551S        S 9355   0.094  11.812  26.309 -0.0926  0.2733 -0.1371
 2552S        S 9356   6.502   7.783  28.864 -0.0932  0.2324 -0.1783
 2553S        S 9357   1.669  11.987  14.014 -0.4825 -0.5025 -0.3294
 2554S        S 9358   7.016   5.263  21.990  0.3160  0.2764  0.4413
 2555S        S 9359   5.987   3.378  31.487  0.1663  0.8899  0.9327
 2556S        S 9360   3.196   3.672  23.185  0.2555 -0.0944 -0.1929
 2557S        S 9361  11.519   7.413  30.228 -0.0255  0.1647 -0.4635
 2558S        S 9362   6.111   7.591  19.286 -0.0624  0.2133  0.1353
 2559S        S 9363  10.875   4.588  31.856  0.3899 -0.1383  0.3474
 2560S        S 9364   8.389   8.940  17.081 -0.2180 -0.3906 -0.1826
 2561S        S 9365   0.697  10.681  11.298  0.0324 -0.0008 -0.2114
 2562S        S 9366   7.063   7.523  28.716  0.1398  0.6698 -0.2405
 2563S        S 9367   2.677   7.127  10.360  0.1553 -0.1165  0.2918
 2564S        S 9368   2.267   3.640  21.964 -0.0112  0.4331  0.3689
 2565S        S 9369  10.187   5.328  23.859 -0.1705  0.1224 -0.5503
 2566S        S 9370   1.830   7.371  12.424 -0.1047 -0.0403  0.1792
 2567S        S 9371   6.743   1.094  20.379  0.0171 -0.1263  0.0161
 2568S        S 9372   7.224   1.278  19.298  0.2383  0.4659  0.1971
 2569S        S 9373  10.538   2.000  15.125  0.3855 -0.0519  0.1761
 2570S        S 9374   8.101   2.734  30.074 -0.0077  0.4489 -0.2220
 2571S        S 9375   3.983  11.643  23.211 -0.0815 -0.2397  0.2051
 2572S        S 9376   8.929   7.584  21.896  0.0581 -0.3472 -0.3874
 2573S        S 9377  11.832   4.657  23.421  0.3301 -0.4148  0.3978
 2574S        S 9378   2.569   8.584  29.732  0.0474 -0.0051  0.8913
 2575S        S 9379  11.497   3.404  11.616 -0.2616  0.5204  0.1191
 2576S        S 9380   1.854   9.477  26.142  0.0205 -0.3096 -0.3613
 2577S        S 9381   7.244  10.649  13.664 -0.0760  0.1672  0.3376
 2578S        S 9382   9.394   3.683  22.082  0.1895 -0.4129 -0.4585
 2579S        S 9383   4.708   1.110  17.705 -0.4258 -0.4100 -0.0259
 2580S        S 9384   8.603   3.115  11.824 -0.8305  0.4350  0.0922
 2581S        S 9385   8.716   8.629   4.965 -0.1260  0.4011 -0.2774
 2582S        S 9386   5.704   7.518  27.273  0.0925 -0.2051 -0.0226
 2583S        S 9387   5.755   6.911  16.358  0.4954  0.0119 -0.0245
 2584S        S 9388   3.662   5.615  22.115  0.6337  0.0194  0.2153
 2585S        S 9389   2.504   9.533  29.758 -0.2777  0.1568 -0.0885
 2586S        S 9390   2.715   7.720  41.034  0.6744 -0.1051 -0.1080
 2587S        S 9391  12.187   1.894  20.964 -0.1544  0.0835  0.1503
 2588S        S 9392   8.933  10.543  30.204 -0.2563  0.3818  0.1510
 2589S        S 9393   3.230   3.533   1.614 -0.0891  0.0490 -0.1239
 2590S        S 9394   5.358   6.869  13.726 -0.0294 -0.0324  0.0270
 2591S        S 9395   7.198  10.011  21.773 -0.2948 -0.1021 -0.2387
 2592S        S 9396   1.691  12.360  24.997  0.6849  0.1017  0.2421
 2593S        S 9397   5.256   6.442  17.617 -0.2791  0.0523  0.0477
 2594S        S 9398   6.202   4.438  23.668 -0.4004 -0.1774  0.1768
 2595S        S 9399   4.886   2.936  14.260 -0.0524 -0.3658  0.3809
 2596S        S 9400  10.199   7.558  26.105 -0.3559 -0.1177  0.0002
 2597S        S 9401  10.041   3.245   9.066 -0.1472  0.4356  0.3848
 2598S        S 9402   0.994   7.277  26.338 -0.8780  0.3348  0.1837
 2599S        S 9403   3.239  12.096  31.511  0.4860 -0.2557 -0.7396
 2600S        S 9404   0.652   1.139  17.028  0.2654 -0.1025 -0.1603
 2601S        S 9405   1.047   5.023  13.648 -0.0575  0.0308 -0.4359
 2602S        S 9406   2.830   7.519  16.312  0.4285  0.1637  0.1675
 2603S        S 9407   2.364  10.923  16.363 -0.4912 -0.0586 -0.4733
 2604S        S 9408   6.091   8.554  23.257  0.3750 -0.7945 -0.0359
 2605S        S 9409   8.569   6.174  12.448 -0.1018 -0.1684  0.1430
 2606S        S 9410   8.091   1.406   9.024  0.4435  0.1243  0.2583
 2607S        S 9411   6.710   0.692  14.805  0.6796 -0.5364 -0.0748
 2608S        S 9412   1.576  10.476  25.290 -0.3793 -0.6473  0.1633
 2609S        S 9413  11.948   7.177  20.523  0.3987  0.0462 -0.1936
 2610S        S 9414   4.533   2.549  19.683  0.2365  0.3373 -0.2970
 2611S        S 9415   7.967   2.794  23.755 -0.3395 -0.0695 -0.2455
 2612S        S 9416   9.232   2.826  12.911  0.6356 -0.3259 -0.0119
 2613S        S 9417   5.079   2.923  15.096  0.0248 -0.0178  0.1797
 2614S        S 9418  10.445   9.661  31.699  0.2112 -0.7502 -0.6002
 2615S        S 9419  11.731   2.335  28.231  0.2668 -0.1974 -0.0203
 2616S        S 9420   8.896   1.599  17.033 -0.0387  0.3985  0.2809
 2617S        S 9421  11.560  11.414  26.470 -0.2868 -0.2340 -0.1425
 2618S        S 9422   1.742  11.027  14.627  0.2921  0.1539 -0.1454
 2619S        S 9423  10.643   3.495  28.285 -0.3131  0.1277 -0.1343
 2620S        S 9424   2.693   7.474  15.123 -0.1624  0.2261 -0.1117
 2621S        S 9425   6.241   8.272  24.246  0.0304 -1.0708  0.1318
 2622S        S 9426   5.900   0.469  15.546  0.5554  0.0979  0.6406
 2623S        S 9427   3.439   2.014  21.468 -0.4117  0.3305 -0.4800
 2624S        S 9428   4.645   2.894  16.268 -0.0358  0.1720 -0.4633
 2625S        S 9429   3.190   4.372  14.475 -0.3684  0.5065  0.1363
 2626S        S 9430   0.191   7.449  15.498 -0.0649 -0.4097 -0.0531
 2627S        S 9431   0.128   5.957  20.001 -0.5540 -0.0387  0.3173
 2628S        S 9432   0.229  10.880  18.930 -0.4880  0.4930  0.5732
 2629S        S 9433  10.916   3.602  31.647  0.1589 -0.2562 -0.2995
 2630S        S 9434  11.474   1.715  25.522 -0.6747 -0.2733  0.3300
 2631S        S 9435   7.387   5.703  14.970 -0.2461  0.1528  0.4755
 2632S        S 9436   7.738  10.252  33.608  0.7011  0.0539 -0.1372
 2633S        S 9437   8.716   2.327  25.741  0.0493 -0.2884  0.0425
 2634S        S 9438   4.175   7.139  16.689  0.4053 -0.2233  0.4892
 2635S        S 9439   1.858   6.562  15.412 -0.1769  0.1962  0.3704
 2636S        S 9440   6.173  10.313  29.614  0.4333 -0.4101 -0.5266
 2637S        S 9441   0.507   4.041  18.113  0.1152  0.0879 -0.6593
 2638S        S 9442  10.579   8.306  23.294 -0.2908  0.0085  0.3463
 2639S        S 9443   0.152   2.729  15.160 -0.0560  0.5735  0.1929
 2640S        S 9444   6.583   2.817  21.872 -0.2984  1.0227  0.1047
 2641S        S 9445   2.010   2.048  31.284 -0.7372  0.0729  0.4965
 2642S        S 9446   3.371   9.983  31.103  0.6945 -0.5859  0.3987
 2643S        S 9447  11.818   2.209  18.904 -0.0380 -0.6311  0.1875
 2644S        S 9448  10.656   2.997  18.271  0.0669  0.1555 -0.1711
 2645S        S 9449   1.552   9.030  24.578 -0.0991  0.1133 -0.2702
 2646S        S 9450   5.328   2.422  16.283  0.1048 -0.0758 -0.2051
 2647S        S 9451   9.714   7.814  18.095  0.3066 -0.1193 -0.3895
 2648S        S 9452   8.015   2.332  31.712 -0.0463 -0.0695  0.1107
 2649S        S 9453   2.486   7.013  17.639  0.1383 -0.5580  0.2737
 2650S        S 9454   4.358   1.762  30.951  0.5346 -0.2395  0.1333
 2651S        S 9455   6.353   4.287  14.053  0.2124  0.0767 -0.3127
 2652S        S 9456  11.902  11.349  25.500  0.2927 -0.1364 -0.2806
 2653S        S 9457   9.935   0.158  16.098 -0.2060  0.5178 -0.3838
 2654S        S 9458   6.672  10.477  18.138 -0.3196  0.9044  0.0041
 2655S        S 9459   5.763   7.221  19.739  0.4837  0.1842  0.0275
 2656S        S 9460   9.184   5.747  14.113 -0.3944  0.0217 -0.0168
 2657S        S 9461  11.831   9.916  15.979 -0.3997  0.2108 -0.1601
 2658S        S 9462  10.038   6.467  28.478 -0.1463  0.0309  0.5196
 2659S        S 9463   4.514   0.654  12.649  0.1301  0.1012 -0.1213
 2660S        S 9464  11.257   6.413  27.281  0.3560 -0.3161 -0.3395
 2661S        S 9465   2.178   6.169  12.071  0.0335  0.0592  0.4687
 2662S        S 9466   0.465   9.382  24.609  0.4272  0.4587 -0.1600
 2663S        S 9467  10.249   3.080  12.262 -0.0238  0.5728  0.3874
 2664S        S 9468   9.785   1.598  28.689  0.5590 -0.2207  0.5093
 2665S        S 9469   7.467  11.601  19.690 -0.4566 -0.1313  0.3919
 2666S        S 9470   6.385   8.596   4.765 -0.3828 -0.2018  0.2193
 2667S        S 9471   3.014   7.783  16.737 -0.3670 -0.5689  0.4376
 2668S        S 9472   5.466  10.029  12.267  0.2439 -0.1482 -0.0057
 2669S        S 9473   0.797  10.915  23.726  0.1534  1.0897  0.4000
 2670S        S 9474   4.331   4.121  33.776 -0.4681  0.0602  0.1961
 2671S        S 9475   8.788   6.237   1.251  0.3416  0.3016  0.0563
 2672S        S 9476   6.818   7.763  31.592 -0.0315  0.5888  0.4520
 2673S        S 9477  10.358   5.624  25.531 -0.4941  0.2063 -0.5329
 2674S        S 9478   1.135  10.722  25.541  0.1072  0.2087  0.1768
 2675S        S 9479   4.756   5.880  24.952 -0.5689 -0.2920  0.5126
 2676S        S 9480   4.644   9.597  21.802  0.0323  0.6384 -0.2047
 2677S        S 9481  10.714   7.742  18.070 -0.2964  0.0566 -0.0315
 2678S        S 9482   5.143   1.410  32.543 -0.5331 -0.4899 -0.2360
 2679S        S 9483   2.726   3.785  27.654  0.1680 -0.3277  0.6583
 2680S        S 9484   9.170  12.106  19.590  0.1910  0.0827  0.2463
 2681S        S 9485   2.162   6.994  15.617  0.3874  0.3876  0.4992
 2682S        S 9486   7.786   9.567  26.741 -0.0887  0.2226  0.3203
 2683S        S 9487   4.165   0.145  28.135  0.4456  0.0705  0.0010
 2684S        S 9488   5.715   1.047  22.318 -0.1900  0.7839  0.0633
 2685S        S 9489   3.365  11.611  31.812  0.2763  0.2525  0.1714
 2686S        S 9490   0.061   2.354  13.060  0.0676  0.1444  0.0920
 2687S        S 9491   7.046   4.143  12.733 -0.2237  0.4809  0.0398
 2688S        S 9492  12.260   8.560  24.873  0.5842 -0.1891  0.1786
 2689S        S 9493   7.970   9.338  18.326 -0.2207  0.3012 -0.2413
 2690S        S 9494  11.782   5.158  30.607 -0.2212 -0.1714 -0.1822
 2691S        S 9495   0.993   4.634  15.240 -0.3593 -0.3908 -0.0605
 2692S        S 9496   9.101   6.763  20.692 -0.0176  0.1093 -0.2495
 2693S        S 9497   4.047   7.593  47.556  0.2487 -0.4179  0.1846
 2694S        S 9498   4.451   8.750  21.648 -0.1804 -0.2778 -0.1221
 2695S        S 9499   7.383   1.908   9.003 -0.2066  0.0580  0.1776
 2696S        S 9500   8.085   5.288  26.083  0.1392  0.0084 -0.6258
 2697S        S 9501  12.046   9.077  16.650  0.1075  0.2850 -0.2305
 2698S        S 9502   5.515  12.153  21.698 -0.4311  0.0978  0.2341
 2699S        S 9503   1.982  11.549  12.749  0.1710 -0.4053 -0.0676
 2700S        S 9504   8.648   0.379  19.017  0.0183  0.1379  0.0650
 2701S        S 9505  11.044  10.895  14.052  0.5557  0.0960 -0.3574
 2702S        S 9506   7.468  10.200  21.284 -0.3551  0.2491 -0.1735
 2703S        S 9507  12.317  11.053  12.975  0.1306  0.2783 -0.4768
 2704S        S 9508   1.879   7.340  19.906 -0.1718  0.4424  0.1543
 2705S        S 9509   3.110   4.845  25.153 -0.1626 -0.9052 -0.1681
 2706S        S 9510   6.257   4.643  15.710 -0.0469 -0.9000  0.0285
 2707S        S 9511  12.257   2.249  27.891 -0.3079 -0.6681 -0.3210
 2708S        S 9512   6.021   8.661  22.615  0.4751  0.0866 -0.6209
 2709S        S 9513  10.495   4.467  19.394  0.2990 -0.0523 -0.1288
 2710S        S 9514   8.196   7.301  12.819 -0.2319  0.2825 -0.1365
 2711S        S 9515   1.322   9.973  23.235 -0.1902  0.5786 -0.3549
 2712S        S 9516   9.199  10.853  17.602 -0.3354 -0.1513 -0.1591
 2713S        S 9517   0.994   0.852  31.371 -0.7648 -0.0603  0.2257
 2714S        S 9518   2.819   5.301  28.537 -0.3028  0.1409 -0.0785
 2715S        S 9519   5.233   2.906  13.813  0.2574  0.0501 -0.8284
 2716S        S 9520   8.420   2.217   9.250 -0.0865  0.3132  0.2124
 2717S        S 9521   3.797   6.026  19.940 -0.0909 -0.3510 -0.1537
 2718S        S 9522   4.852   4.893  28.298 -0.0942 -1.3098 -0.2065
 2719S        S 9523   2.242   7.570  28.117  0.3723 -0.3121  0.1427
 2720S        S 9524   1.318  10.951  23.422 -0.1063  1.1685 -0.2421
 2721S        S 9525   8.007   9.548  13.613 -0.3241 -0.2330 -0.4399
 2722S        S 9526   1.605   7.089  28.844  0.3002 -0.2910  0.1919
 2723S        S 9527   6.347   1.706  16.334 -0.0939 -0.6314  0.4275
 2724S        S 9528   8.002   5.423  40.545 -0.1072  0.0338 -0.0149
 2725S        S 9529   4.892   8.361  18.004 -0.0094 -0.1860  0.0713
 2726S        S 9530   7.954   6.782  19.725 -0.4049  0.1916  0.1220
 2727S        S 9531   4.297   3.535  21.632 -0.1273 -0.3257  0.0372
 2728S        S 9532   5.965   5.331  23.415  0.1250  0.3684 -0.4432
 2729S        S 9533   4.376   0.606  11.257 -0.2775  0.2029 -0.3177
 2730S        S 9534   8.892  10.473  26.253  0.4176  0.2584 -0.5052
 2731S        S 9535   5.686  11.382  30.016  0.0513  0.1008 -0.3937
 2732S        S 9536   5.620   9.737  20.075 -0.5270  0.0843 -0.1025
 2733S        S 9537   8.180  10.518  16.297 -0.1075 -0.0287 -0.0882
 2734S        S 9538   3.565  11.487  22.868 -0.2671  0.6199  0.1076
 2735S        S 9539   2.396   3.140  13.703 -0.2658  0.2996  0.1555
 2736S        S 9540   5.420   1.187  32.096  0.0117 -0.1345  0.2321
 2737S        S 9541   8.017   6.196  26.739 -0.1391  0.1646  0.0064
 2738S        S 9542   8.719   6.006  27.694 -0.1377  0.2713 -0.1263
 2739S        S 9543   4.282   4.409  19.672  0.1637  0.1501 -0.0173
 2740S        S 9544   3.769   2.332  29.344 -0.3970  0.4550  0.1958
 2741S        S 9545   1.540   9.278  16.269 -0.4480  0.2232 -0.0497
 2742S        S 9546   5.398   9.428  29.165  0.3974 -0.0138  0.3339
 2743S        S 9547  11.257   1.055  28.553 -0.0649  0.2161 -0.1271
 2744S        S 9548   8.314   3.946  17.962 -0.0125 -0.1232  0.1801
 2745S        S 9549   8.393   1.273  25.052  0.5909  0.5950  0.4709
 2746S        S 9550   7.833   0.419  19.084 -0.0209 -0.1915 -0.1218
 2747S        S 9551   9.824  11.655  16.576  0.0421  0.4419  0.8417
 2748S        S 9552   9.191   2.691  11.393 -0.3725  0.2833  0.0263
 2749S        S 9553   4.089  11.842  12.807  0.3348 -0.0395 -0.3110
 2750S        S 9554   1.813   1.922  23.742 -0.0463 -0.7399  0.3364
 2751S        S 9555   7.646   4.020  26.210 -0.5383  0.0022  0.2396
 2752S        S 9556  11.451  11.240  24.145  0.2808  0.1085  0.0027
 2753S        S 9557   0.635  11.595  22.595  0.4136 -0.2457  0.2165
 2754S        S 9558   7.154   2.365  16.296  0.1217  0.3201 -0.7138
 2755S        S 9559   3.562  11.084  32.101 -0.9770  0.1776  0.3985
 2756S        S 9560   8.123   3.146  30.518  0.4281 -0.3230 -0.0992
 2757S        S 9561   1.434   7.494  12.097  0.3275  0.1368  0.0376
 2758S        S 9562   6.928   1.449  23.129  0.0011  0.2432  0.0368
 2759S        S 9563  10.014   3.327  17.800 -0.3388  0.0770 -0.0638
 2760S        S 9564   1.875   3.956  23.208  0.0544 -0.1484  0.0116
 2761S        S 9565   5.608  11.700  22.107 -0.4313 -0.3937  0.1942
 2762S        S 9566  11.835   5.610  17.790 -0.1463 -0.5060  0.2778
 2763S        S 9567   8.412   3.487  42.141  0.2154 -0.0167  0.5812
 2764S        S 9568   9.796   0.849  13.079 -0.0604 -0.3343  0.0588
 2765S        S 9569   2.125   6.806  22.142 -0.1106 -0.2581 -0.1509
 2766S        S 9570   1.204   5.679  12.811 -0.2557  0.3495  0.7931
 2767S        S 9571   6.977   8.410  26.777  0.6017 -0.1453  0.0505
 2768S        S 9572   9.063  12.317  16.783 -0.0040 -0.7070 -0.0217
 2769S        S 9573   6.809   5.701  22.159  0.5071  0.0704 -0.4250
 2770S        S 9574   9.142   2.057  15.153 -0.1402 -0.1201 -0.1035
 2771S        S 9575  11.684  11.916  17.150  0.0718 -0.2410 -0.1890
 2772S        S 9576   1.068   9.422  14.306 -0.0662 -0.0361 -0.2961
 2773S        S 9577   3.278   1.202   6.307  0.1747  0.1727  0.0493
 2774S        S 9578  12.268   8.471  13.204 -0.1168  0.2101 -0.0274
 2775S        S 9579   1.633   5.655  18.535 -0.1320  0.1729 -0.1428
 2776S        S 9580   9.373   7.120  26.298  0.7675  0.0855  0.2224
 2777S        S 9581   4.321   4.349  17.103  0.1238 -0.0396 -0.2255
 2778S        S 9582   2.312   4.223  18.348  0.5895 -0.1407 -0.0909
 2779S        S 9583   7.616  12.210  23.058  0.1383 -0.0643 -0.2607
 2780S        S 9584   7.845   2.726  21.638  0.0950 -0.1968 -0.7251
 2781S        S 9585   9.953   2.329  11.922  0.5567  0.5845  0.0305
 2782S        S 9586   4.275  11.802  22.669 -0.3458 -0.4004 -0.0056
 2783S        S 9587   3.928   3.500  26.405 -0.2680  0.3518  0.3869
 2784S        S 9588   0.683   1.167  32.137  0.1918  0.3752  0.3260
 2785S        S 9589   0.532   5.036  12.005 -0.1345  0.1238  0.2730
 2786S        S 9590   8.691   6.122  17.361 -0.0052 -0.2294  0.4364
 2787S        S 9591  11.552   0.813  48.583 -0.5216 -0.1505  0.1195
 2788S        S 9592   8.202   4.232  20.899 -0.0147 -0.0045 -0.4729
 2789S        S 9593   4.758   4.299  14.967  0.3083 -0.0388  0.1992
 2790S        S 9594   0.394   4.779  24.894  0.1855  0.0537  0.0055
 2791S        S 9595   0.026  10.639  23.559  0.2336 -0.2757 -0.3941
 2792S        S 9596   6.049   1.141  22.709  0.0006  0.4280 -0.0192
 2793S        S 9597  11.663   0.074  15.633  0.6104 -0.0452 -0.1369
 2794S        S 9598   9.128   2.833   5.034 -0.0300  0.1590 -0.0555
 2795S        S 9599   7.531   2.596  22.081  0.2303  0.3778 -0.4327
 2796S        S 9600   4.811   3.324  21.931 -0.0964 -0.1069 -0.6340
 2797S        S 9601   4.400   8.065  29.325  0.0508 -0.0421  0.1696
 2798S        S 9602   0.869   1.392  20.186 -0.1077  0.5538  0.0504
 2799S        S 9603   7.634   3.698  30.366  0.2673 -0.0734  0.1866
 2800S        S 9604   1.352   8.071  27.064 -0.3030  0.4005 -0.0700
 2801S        S 9605   1.376   4.902  29.400 -0.0390  0.4720 -0.2175
 2802S        S 9606   6.214   3.253  15.649  0.0208  0.2252  0.3030
 2803S        S 9607   2.545   4.503  17.952 -0.0347 -0.2946 -0.1411
 2804S        S 9608   0.648   3.295  30.779 -0.0498 -0.0566  0.7501
 2805S        S 9609  10.501   6.465  27.642  0.9067 -0.0388 -0.0098
 2806S        S 9610   7.617  11.974  20.776  0.2838  0.0178 -0.1436
 2807S        S 9611   9.426  11.388  26.426  0.8441  0.2227  0.0750
 2808S        S 9612   0.436   0.610  14.537 -0.0151  0.4262  0.9773
 2809S        S 9613   4.920  10.249  10.897  0.1475  0.4981 -0.0018
 2810S        S 9614   6.345   3.547  17.301  0.0314  0.1000 -0.5411
 2811S        S 9615   3.611   3.487  17.612  0.4292  0.3720  0.2487
 2812S        S 9616  11.410   5.643  15.760 -0.3840 -0.3460 -0.0859
 2813S        S 9617   1.771   1.921  11.673  0.2995 -0.2774 -0.2343
 2814S        S 9618  11.664   6.751  16.246 -0.1495  0.1815  0.2756
 2815S        S 9619   9.926   8.556  28.373 -0.4261  0.1101 -0.0527
 2816S        S 9620   4.576   1.296  12.019 -0.3709  0.0433  0.1881
 2817S        S 9621   4.204   2.382  14.846  0.4394  0.2262 -0.0148
 2818S        S 9622  11.327  10.328  15.668 -0.2754 -0.0120  0.2010
 2819S        S 9623   6.584   7.867  15.624 -0.2789 -0.1825  0.1948
 2820S        S 9624  11.458  10.879  13.795 -0.6133 -0.0489 -1.0739
 2821S        S 9625   5.367   7.715  18.681  0.0189 -0.0513  0.1553
 2822S        S 9626  11.017   7.642  17.660  0.1395  0.2279 -0.0824
 2823S        S 9627   6.148   4.714  19.028  0.5124 -0.1198  0.0098
 2824S        S 9628   6.468   3.344  23.180  0.0532 -0.0509 -0.4619
 2825S        S 9629  11.479   5.101  15.495 -0.2492  0.3526 -0.0084
 2826S        S 9630   5.208   7.560  14.614  0.5269 -0.0224  0.1478
 2827S        S 9631  10.164   5.608  12.127 -0.3810  0.3201 -0.2658
 2828S        S 9632   0.131   4.215  28.611 -0.3743 -0.0932  0.1028
 2829S        S 9633   7.211  11.164  20.324 -0.3378 -0.0976 -0.4089
 2830S        S 9634   9.587  11.180  14.404  0.1688  0.0439 -0.3635
 2831S        S 9635   3.798  11.154  13.311 -0.2368 -0.4143  0.0753
 2832S        S 9636   3.022  10.292  24.282 -0.1390 -0.1331  0.1793
 2833S        S 9637   4.210   3.003  27.224 -0.5925 -0.1694 -0.2258
 2834S        S 9638   2.417   1.340  22.716  0.1129 -0.4034  0.3095
 2835S        S 9639   3.521   3.656  25.321 -0.4213  0.2574  0.0096
 2836S        S 9640   0.256   1.883  24.487  0.3359 -0.7585  0.3133
 2837S        S 9641   6.452   4.043  23.421  0.6768 -0.6925 -0.0812
 2838S        S 9642   4.659   2.765  30.614  0.7546 -0.2589  0.5265
 2839S        S 9643   8.876   9.709  28.815 -0.0408  0.3535  0.5602
 2840S        S 9644   5.899   6.857  14.955  0.6974 -0.6006  0.0995
 2841S        S 9645  12.287   4.046  27.343  0.4249  0.1472  0.0786
 2842S        S 9646   8.379   6.485  19.775 -0.0991 -0.6096  0.2680
 2843S        S 9647   2.035  10.114  29.189 -0.1027  0.1209 -0.0319
 2844S        S 9648   8.499  11.549  21.977 -0.0058 -0.1462 -0.1217
 2845S        S 9649   3.527   0.530  21.295 -0.0284  0.1587 -0.0028
 2846S        S 9650   3.571   6.300  19.619  0.5996  0.1966 -0.3239
 2847S        S 9651   5.231   6.313  18.388  0.1931 -0.4157  0.4572
 2848S        S 9652   9.105   1.001  17.037 -0.4130  0.3144  0.0446
 2849S        S 9653   5.865   2.805  23.991  0.1767  0.2614  0.4651
 2850S        S 9654   7.752   5.720  27.780 -0.3880  0.1529 -0.3596
 2851S        S 9655   1.876   1.264  20.916 -0.2960 -0.0340  0.4532
 2852S        S 9656   8.884   4.296  13.527  0.0973 -0.0622  0.0758
 2853S        S 9657   2.679   3.895  15.697  0.1220  0.5361 -0.4259
 2854S        S 9658   1.188   7.178  13.914  0.5210 -0.0744 -0.0265
 2855S        S 9659  12.226   4.053  30.528 -0.3581 -0.0796 -0.0627
 2856S        S 9660  10.236  12.149  26.932 -0.1951 -0.3365  0.1303
 2857S        S 9661   8.155  11.554  22.668 -0.2820  0.2505 -0.7489
 2858S        S 9662  11.247   2.862  11.501  0.2306  0.2566 -0.2198
 2859S        S 9663   3.547   9.674  23.776 -0.0606  0.2212 -0.0048
 2860S        S 9664  10.379   8.553  13.569  0.1312  0.2313 -0.2271
 2861S        S 9665  10.777   1.373  24.819  0.1321  0.0413  0.2633
 2862S        S 9666   9.187  11.682  15.965 -0.0796 -0.3305  0.0125
 2863S        S 9667   9.861  12.192  14.645 -0.0652 -0.0475  0.1197
 2864S        S 9668   5.279   3.389  17.943  0.1745 -0.2579 -0.4518
 2865S        S 9669   7.661   7.150  24.839 -0.0705  0.4343  0.1330
 2866S        S 9670   0.006   4.382  24.833  0.4510 -0.6885  0.2324
 2867S        S 9671   2.557   9.950  17.106 -0.1442 -0.4228 -0.4687
 2868S        S 9672   9.481   0.662  23.835 -0.2569  0.2188 -0.0076
 2869S        S 9673   1.736   1.255  11.669  0.0108  0.0378  0.1048
 2870S        S 9674   5.398   3.366  12.440  0.5850 -0.1384  0.1227
 2871S        S 9675   1.355   8.878  22.716 -0.0625 -0.1770 -0.5098
 2872S        S 9676   0.616   4.499  25.525  0.6748  0.3446  0.0405
 2873S        S 9677   8.554   2.775  25.462  0.1612 -0.0619  0.5487
 2874S        S 9678   9.464   0.815  31.780 -0.0408  0.5854  0.1244
 2875S        S 9679  11.244  10.173  20.051  0.1505 -0.1979 -0.1663
 2876S        S 9680   7.603   2.692  12.390 -0.3036  0.0054 -0.2344
 2877S        S 9681   6.900   5.249  15.677 -0.1679  0.3240 -0.1918
 2878S        S 9682   8.116   1.685   9.979 -0.3700 -0.2293  0.4544
 2879S        S 9683   7.574   2.940  16.765  0.2952 -0.1566  0.0428
 2880S        S 9684   6.985   5.152  12.301  0.6169  0.0390 -0.0462
 2881S        S 9685   7.424   3.269  19.523  0.6506 -0.2698 -0.2210
 2882S        S 9686  10.117   8.644  17.212 -0.3386 -0.1586  0.2508
 2883S        S 9687   8.865   4.891  26.414 -0.4660 -0.1521  0.4912
 2884S        S 9688   1.910  11.417  21.624  0.3465 -0.2790  0.3898
 2885S        S 9689   5.743   7.221  16.862 -0.2210 -0.0007 -0.1016
 2886S        S 9690  10.546  10.750  12.176 -0.3984 -0.0775  0.3000
 2887S        S 9691   7.999  11.616  16.411 -0.0049 -0.2360  0.5774
 2888S        S 9692   7.624   9.012  29.465 -0.1553 -0.4168  0.0694
 2889S        S 9693   5.035   8.701   5.807 -0.0370  0.1632  0.0938
 2890S        S 9694  10.646   3.628  27.725  0.5188  0.0457  0.1416
 2891S        S 9695   6.479   7.662  13.067  0.2159 -0.0861  0.2070
 2892S        S 9696  11.245  10.560  24.432  0.0636 -0.2090  0.3275
 2893S        S 9697   3.191   5.530  15.045  0.3956  0.5154 -0.1093
 2894S        S 9698  11.471   2.348  30.555  0.1020 -0.6981 -0.6833
 2895S        S 9699   6.733  10.126  16.243  0.0882 -0.0599 -0.0176
 2896S        S 9700   1.423   0.297  19.672  0.1648  0.2388 -0.0600
 2897S        S 9701   1.765   8.951   3.852  0.4939 -0.2214  0.1259
 2898S        S 9702   5.314   6.387  13.451  0.1744  0.0707  0.3731
 2899S        S 9703   2.064  12.099  30.505 -0.2308  0.0401  0.1921
 2900S        S 9704   2.799   0.941  14.885 -0.1864 -0.5683 -0.3415
 2901S        S 9705   6.378   2.619  20.440 -0.2418  0.0538  0.2963
 2902S        S 9706   7.325   5.691  19.148 -0.2849  0.1086 -0.0267
 2903S        S 9707   1.324   3.193  19.885  0.3052 -0.5648 -0.2322
 2904S        S 9708   9.644   8.844  17.261  0.1719 -0.2288  0.0038
 2905S        S 9709   5.968  10.978  26.891 -0.1223  0.2049  0.0169
 2906S        S 9710   2.327   8.846  23.263 -0.0267 -0.2203 -0.7070
 2907S        S 9711  10.155   5.652  14.026  0.0356 -0.0719 -0.2706
 2908S        S 9712   6.737  10.123  31.478 -0.2511  0.6299  0.7462
 2909S        S 9713  10.118   9.426  12.701  0.0898  0.0083  0.0359
 2910S        S 9714   9.023   3.423  30.178 -0.2530 -0.3606  0.6029
 2911S        S 9715   9.553   7.539  16.570 -0.9269  0.0143 -0.1901
 2912S        S 9716   2.509   0.526  18.852  0.0741  0.3994  0.0873
 2913S        S 9717   7.293  10.345  23.520  0.1799  0.0380  0.2674
 2914S        S 9718  10.308   3.987  18.549  0.2552 -0.0576 -0.0041
 2915S        S 9719   3.890   4.933  21.458 -0.2263  0.1629  0.2774
 2916S        S 9720   5.832  10.292  17.182 -0.0555  0.2656  0.1812
 2917S        S 9721   9.498   0.395  43.542 -0.0744 -0.1701 -0.2872
 2918S        S 9722   5.071   6.225  17.158 -0.0364  0.0369 -0.4480
 2919S        S 9723   4.237  11.953  14.618 -0.0181 -0.1850 -0.1773
 2920S        S 9724   7.025  11.640  20.008  0.1942 -0.4351 -0.1522
 2921S        S 9725   3.354   4.231  20.255  0.0692 -0.2865  0.2830
 2922S        S 9726   3.970   2.785  18.210 -0.1239 -0.4068  0.0130
 2923S        S 9727   0.301   9.539  31.738  0.6149 -0.1631  0.3181
 2924S        S 9728   1.221   0.580  20.080  0.3808  0.4977  0.0489
 2925S        S 9729   5.798  11.616  14.245  0.3015 -0.2071  0.0352
 2926S        S 9730   2.307   3.959  12.683  0.1138 -0.5041 -0.3836
 2927S        S 9731   2.113   6.041  33.114 -0.7942  0.1759  1.2945
 2928S        S 9732  10.400   2.531  30.980 -0.6934 -0.1897  0.3173
 2929S        S 9733   2.115   7.138  16.749  0.1381 -0.0547  0.1976
 2930S        S 9734  10.019   7.640  15.275  0.3109  0.4371  0.0496
 2931S        S 9735   9.897   4.880  13.398 -0.3235  0.8001  0.0110
 2932S        S 9736  11.687   9.251  22.130  0.4287  0.6155  0.3166
 2933S        S 9737   4.106   3.593  13.419 -0.2337 -0.1271 -0.2033
 2934S        S 9738   4.249   3.805  25.576  0.7459  0.0706 -0.2153
 2935S        S 9739   0.332   6.892  16.871  0.3604  0.5128 -0.1347
 2936S        S 9740   9.168   5.778  11.545 -0.3621  0.6736  0.0937
 2937S        S 9741   7.227   9.101  29.094  0.2520 -0.0273  0.4306
 2938S        S 9742   7.424   1.674  30.370  0.1691 -0.3233 -0.0671
 2939S        S 9743  12.180   2.945  29.329 -0.4385  0.2164 -0.6288
 2940S        S 9744   1.219   2.888  35.334 -0.3484  0.1428 -0.1097
 2941S        S 9745   3.534   8.937  20.961 -0.1586  0.8439  0.2358
 2942S        S 9746   8.972  11.131  33.388 -0.4210 -0.5009  0.0130
 2943S        S 9747   0.926  10.973  20.051  0.4185 -0.1144  0.1101
 2944S        S 9748   6.091   5.868  17.055 -0.4597 -0.3545 -0.0826
 2945S        S 9749   6.360  10.041  21.526  0.0159 -0.2539 -0.3027
 2946S        S 9750   7.482   0.733  31.309  0.6896  0.0026  0.1511
 2947S        S 9751   0.447   2.287  15.133 -0.4763  0.0812  0.0108
 2948S        S 9752   7.054   4.485  26.695  0.0121  0.1566 -0.5070
 2949S        S 9753   7.298   2.659  13.200  0.4018  0.5965 -0.0314
 2950S        S 9754   9.433   2.247  12.158  0.3071 -0.1451 -0.0541
 2951S        S 9755   5.649   4.943  15.160 -0.2621  0.2864 -0.2241
 2952S        S 9756   0.212  12.344  20.500  0.3544 -0.1187  0.3787
 2953S        S 9757  10.727   9.591  15.301 -0.3193  0.2345  0.4681
 2954S        S 9758  10.455   7.843  30.955  0.1380  0.3944  0.0771
 2955S        S 9759   9.537   2.578  15.801 -0.0305 -0.6891  0.0755
 2956S        S 9760   5.254   5.743  22.332  0.1809 -0.1064  0.7147
 2957S        S 9761   7.324  11.544  24.369  0.3702  0.3786  0.2553
 2958S        S 9762   4.012   5.931  21.903  0.1326  0.1011 -0.3491
 2959S        S 9763   5.967   9.738  21.794  0.3681 -0.3753 -0.1164
 2960S        S 9764  12.000   1.144  21.212  0.4896 -0.2107  0.0330
 2961S        S 9765   1.591   2.319  31.170  0.0607 -0.0746  0.3897
 2962S        S 9766   5.078   9.685  17.235  0.0854  0.4509  0.0264
 2963S        S 9767   2.729   5.840  29.952 -0.5394  0.0897 -0.3634
 2964S        S 9768   2.471   0.651  15.216 -0.2170  0.2657 -0.4668
 2965S        S 9769   5.924   9.875  27.132 -0.3629  0.7833  0.3128
 2966S        S 9770   8.314   4.312  18.675 -0.2072 -0.5452 -0.1130
 2967S        S 9771   0.083   7.836  27.256  0.1246  0.1808 -0.0617
 2968S        S 9772   5.985   0.064  11.639 -0.3728  0.7142  0.1965
 2969S        S 9773   2.985   8.156  15.672  0.0538  0.0939  0.4229
 2970S        S 9774   3.373   1.950  15.206 -0.1625  0.2824  0.0762
 2971S        S 9775   3.681   8.336  28.286  1.1353 -0.0221 -0.1518
 2972S        S 9776   3.058   2.436  14.638  0.1507  0.4213  0.4968
 2973S        S 9777   2.931   2.105  15.396  0.0986  0.0998 -0.1863
 2974S        S 9778   2.916  11.803  13.305  0.0267  0.1765 -0.2208
 2975S        S 9779   7.634   0.005  18.269  0.1015 -0.6656 -0.1971
 2976S        S 9780   3.616  10.861  22.626  0.5226  0.5653 -0.1730
 2977S        S 9781   9.448   2.618  20.144  0.2072 -0.2705  0.0536
 2978S        S 9782   1.548   7.599  12.902  0.2949  0.1684 -0.3404
 2979S        S 9783   3.289  12.074  14.244  0.6083 -0.1416  0.0762
 2980S        S 9784   8.834   7.126  25.850 -0.1470  0.6473  0.4396
 2981S        S 9785   0.196   1.981  14.888  0.4378 -0.0569 -0.0331
 2982S        S 9786   3.990   3.524  25.199  0.0367  0.5634 -0.6233
 2983S        S 9787   5.845   7.185  23.642  0.4411 -0.2620  0.3931
 2984S        S 9788  10.078  12.072  20.139  0.0959  0.5255  0.1854
 2985S        S 9789   0.870   1.191  25.981 -0.1350 -0.3358 -0.0537
 2986S        S 9790   9.608  10.383  24.561 -0.0370  0.4582  0.2494
 2987S        S 9791   9.382   0.192  23.999  0.0531 -0.4670  0.2749
 2988S        S 9792   1.090   7.323  29.173  0.3720  0.1678 -0.3005
 2989S        S 9793   5.154   0.590  25.125 -0.1688  0.1357 -0.2687
 2990S        S 9794   4.483   4.250  22.648  0.2624  0.5420  0.2865
 2991S        S 9795   1.040   8.787  17.396  0.2838 -0.0534  0.5414
 2992S        S 9796   8.779  10.971  15.567  0.3899 -0.0522 -0.7353
 2993S        S 9797   7.418   8.048  16.940 -0.0806 -0.3582  0.4861
 2994S        S 9798   5.135  11.751  21.691  0.4331  0.1795 -0.0503
 2995S        S 9799  10.024   2.000  29.155 -0.7232 -0.4113  0.2009
 2996S        S 9800   6.533   6.090  15.069  0.2517  0.4017  0.6099
 2997S        S 9801   2.648   4.618  26.605  0.0449 -0.0822 -0.3643
 2998S        S 9802  11.987   6.174  20.619 -0.0800 -0.1543  0.0319
 2999S        S 9803   8.143   8.183  20.167  0.3445 -0.1080 -0.1708
 3000S        S 9804   1.950   2.199  17.869 -0.0009 -0.2141 -0.0545
 3001S        S 9805   6.668   3.800  22.749  0.2076 -0.4797  0.1788
 3002S        S 9806   1.540   3.078  12.518  0.5340 -0.0671  0.2586
 3003S        S 9807  10.775   5.735  24.187 -0.1294  0.7768  0.3113
 3004S        S 9808   9.502   0.596  21.962  0.3462  0.3758  0.1267
 3005S        S 9809  10.210   8.697  19.777  0.1919 -0.1559  0.5348
 3006S        S 9810   6.997   9.406  20.379  0.0104  0.1923 -0.0609
 3007S        S 9811   9.490   5.246  13.249 -0.0082  0.0589 -0.1544
 3008S        S 9812  10.788   5.626  27.356  0.5868  0.5023 -0.5343
 3009S        S 9813   2.347   4.901  15.424  0.3298 -0.0455  0.1169
 3010S        S 9814   4.607   4.978  27.831  0.2955 -0.0567 -0.4049
 3011S        S 9815  10.808   6.782  27.375 -0.2629 -0.2208 -0.2561
 3012S        S 9816   0.264   4.353  16.944  0.2048  0.2923  0.1545
 3013S        S 9817  11.303  10.210  29.834 -0.2229 -0.2415  0.0563
 3014S        S 9818   8.592   2.063  29.520  0.2851  0.0971 -0.6200
 3015S        S 9819   5.868   1.627  27.585  0.4833 -0.1427 -0.3363
 3016S        S 9820  11.333   3.551  20.229  0.3228 -0.0703  0.1613
 3017S        S 9821   3.402  12.108  22.467  0.2114  0.1322 -0.0035
 3018S        S 9822  11.487   3.451  22.576  0.0367  0.6015  0.0769
 3019S        S 9823   4.822   5.796  15.751 -0.0002  0.6063 -0.1527
 3020S        S 9824   9.074   3.504  14.167  0.2660 -0.0453  0.2840
 3021S        S 9825   3.677   0.191  26.385 -0.0459  0.7640  0.2981
 3022S        S 9826   3.219   6.963  18.693  0.1030  0.0173  0.2178
 3023S        S 9827   7.793   3.863  18.955  0.6332  0.3041  0.0076
 3024S        S 9828   7.069  10.712  20.158 -0.7484 -0.5092  0.0650
 3025S        S 9829  10.181   7.280  11.288  0.4566  0.2661 -0.1363
 3026S        S 9830   9.134   7.157  12.261  0.6187  0.0194 -0.5020
 3027S        S 9831   9.753   6.931  13.680 -0.5342  0.4300  0.2423
 3028S        S 9832   5.863   1.606  14.979  0.3439  0.1071  0.2219
 3029S        S 9833   7.751   7.146  21.074 -0.0750  0.3609  0.1562
 3030S        S 9834   9.944   3.146  15.828  0.4419 -0.5964  0.1400
 3031S        S 9835   7.034   7.757  14.342  0.4897 -0.0686 -0.4124
 3032S        S 9836   2.364   4.042  13.743  0.0603 -0.0657  0.1108
 3033S        S 9837   4.472   1.837  20.463  0.0830 -0.0581  0.0354
 3034S        S 9838   6.313   9.856  22.311 -0.1635 -1.0214  0.3580
 3035S        S 9839   2.008  11.929  21.859  0.1237 -0.4565 -0.7340
 3036S        S 9840   0.230   3.013  14.612 -0.8769 -0.2723 -0.6128
 3037S        S 9841  10.069   0.286  49.168  0.0431 -0.1217  0.1081
 3038S        S 9842   2.866   5.632  15.492 -0.0631  0.3363  0.7117
 3039S        S 9843   1.853   3.058  13.640 -0.1235 -0.2842 -0.3330
 3040S        S 9844   8.848  11.793  30.773 -0.4600  0.1868  0.2413
 3041S        S 9845  12.169   2.273  15.755 -0.0918 -0.5099 -0.0167
 3042S        S 9846  10.308   7.529  24.322 -0.2133 -0.7357  0.6548
 3043S        S 9847   9.309   1.128  26.729  0.1114 -0.2806  0.2563
 3044S        S 9848   9.622   9.921  18.701 -0.4386  0.2301 -0.3244
 3045S        S 9849   5.156   3.800  26.488  0.0834  0.0977  0.2490
 3046S        S 9850  12.222   9.322  22.179  0.2455  0.1027 -0.0168
 3047S        S 9851   3.200   0.878  23.245  0.2042 -0.5730  0.4471
 3048S        S 9852   7.936   5.980  17.185  0.0428  0.2786  0.1968
 3049S        S 9853  11.361  11.994  28.912 -0.0176 -0.6824 -0.0271
 3050S        S 9854   6.398   8.079  12.369 -0.1864  0.0951  0.1894
 3051S        S 9855   9.994   7.367  21.391 -0.1810 -0.2686 -0.5425
 3052S        S 9856   8.533   8.660  25.710 -0.3361 -0.5860  0.6876
 3053S        S 9857  11.690   1.971  20.128 -0.1272  0.0899  0.1898
 3054S        S 9858   7.157  10.434  31.233  0.0902  0.5819  0.3250
 3055S        S 9859   2.907  10.036  16.666  0.0614  0.2125 -0.0046
 3056S        S 9860  11.386  10.240  23.930  0.0596 -0.5487 -0.9341
 3057S        S 9861   5.288   3.953  14.842  0.0169 -0.5963  0.3526
 3058S        S 9862   3.728   0.654  26.148 -0.2110 -0.4941  0.3718
 3059S        S 9863   3.366   3.058  21.426 -0.4796  0.0127 -0.1854
 3060S        S 9864  12.173   0.214  12.424  0.2126 -0.2782  0.6208
 3061S        S 9865   2.935  12.301  15.688  0.2150  0.2547  0.2691
 3062S        S 9866   2.677   9.164  23.518  0.2540  0.0963  0.2036
 3063S        S 9867  11.631   7.655  19.416 -0.1611 -0.0147  0.1246
 3064S        S 9868   0.947   5.607  11.481 -0.0921 -0.2102 -0.3466
 3065S        S 9869  10.263  11.970  12.337 -0.0869 -0.2322  0.1736
 3066S        S 9870   8.935  10.503  18.977  0.0414  0.0940 -0.2351
 3067S        S 9871   6.056   4.542  17.634 -0.1503  0.6689  0.5154
 3068S        S 9872   1.850   7.218  16.075  0.3566  0.0574  0.1740
 3069S        S 9873   0.171   5.392  22.681  0.5426 -0.2556 -0.3167
 3070S        S 9874  11.729   0.765  23.028 -0.1587  0.0411 -0.2043
 3071S        S 9875   3.339   6.218  20.100 -0.3269 -0.3616 -0.5508
 3072S        S 9876   1.476   1.388  13.074  0.5025 -0.0390  0.0862
 3073S        S 9877   3.196   2.916  14.385  0.2884  0.1432 -0.5385
 3074S        S 9878   2.810   6.862  16.919 -0.0199 -0.3064 -0.2463
 3075S        S 9879   3.741  11.328  16.464  0.0432 -0.4567 -0.0719
 3076S        S 9880  11.474   2.453  31.599  0.6762  0.1171  0.5940
 3077S        S 9881   9.321  10.078  16.280 -0.0819  0.2919 -0.2171
 3078S        S 9882   5.061   6.021  29.569 -0.2066  0.1663 -0.2832
 3079S        S 9883   6.320  11.247  17.206  0.3641 -0.5210 -0.5223
 3080S        S 9884  11.937   2.258  29.703  0.6684 -0.0128  0.2442
 3081S        S 9885   8.871   6.432  14.584 -0.1358  0.1249 -0.1638
 3082S        S 9886   1.073   1.238  11.441  0.6610 -0.1761 -0.3855
 3083S        S 9887  10.793   3.948  27.378 -0.1333  0.0972  0.4615
 3084S        S 9888   6.046   3.664  15.291  0.1273  0.2555  0.0555
 3085S        S 9889   2.629   7.086  24.950 -0.2955 -0.0293  0.0240
 3086S        S 9890   2.781   4.125  25.787  0.0225 -0.3674 -0.9292
 3087S        S 9891   3.992  10.164  27.567 -0.4496 -0.2718  0.2024
 3088S        S 9892   3.331   8.536  18.200  0.1240 -0.4185  0.2554
 3089S        S 9893   7.270   1.603  20.245  0.2020  0.0476 -0.0134
 3090S        S 9894   3.213   0.669  15.227 -0.3032 -0.2387 -0.1727
 3091S        S 9895   0.166   4.994  12.799 -0.7455  0.0726 -0.2668
 3092S        S 9896   9.043   5.858  21.615 -0.5756  0.2009 -0.1934
 3093S        S 9897  11.982   3.891  28.522  0.1680  0.0939 -0.0405
 3094S        S 9898   1.300   8.703  16.951 -0.0576 -0.2966 -0.1554
 3095S        S 9899  10.526   7.923  25.961  0.1390  0.5380 -0.3986
 3096S        S 9900   9.832  12.133  27.350 -0.4181 -0.2756 -0.1568
 3097S        S 9901   4.371   5.660  19.897 -0.0770  0.2611  0.3688
 3098S        S 9902   8.621   9.847  30.397 -0.3863 -0.2341 -0.0899
 3099S        S 9903   2.573   7.486  27.713  0.1341 -0.1836  0.1662
 3100S        S 9904   9.511   0.835  26.411 -0.0273  0.2151 -0.4407
 3101S        S 9905   9.646   1.876  24.946 -0.0014  0.4089  0.1076
 3102S        S 9906   7.437   8.504  31.169 -0.3895 -0.7389  0.2629
 3103S        S 9907   1.570   1.012  15.232  0.0963  0.5186 -0.1858
 3104S        S 9908   2.758   1.464  24.370 -0.2061  0.2347 -0.4682
 3105S        S 9909   2.900   7.454  22.198 -0.2047  0.2026 -0.2447
 3106S        S 9910   4.932   5.379  22.546 -0.3187  0.1050 -0.3405
 3107S        S 9911   6.125   4.889  14.144  0.0498  0.6252 -0.1340
 3108S        S 9912   9.742   9.170  14.421  0.0032  0.0816 -0.2172
 3109S        S 9913  11.367   7.029  31.253  0.4480  0.3045  0.5203
 3110S        S 9914  11.311   1.484  20.115  0.1672  0.3738 -0.1710
 3111S        S 9915   5.769  11.262  26.335  0.7001 -0.1214 -0.4377
 3112S        S 9916   2.927   2.863  26.382  0.4498 -0.6059 -0.4107
 3113S        S 9917   4.736   4.048  26.740 -0.0579  0.1040 -0.1025
 3114S        S 9918   3.051   5.229  12.674  0.2425 -0.2919  0.3733
 3115S        S 9919   1.504   2.174   4.998 -0.0689  0.0739  0.2613
 3116S        S 9920   4.575  11.197  14.892 -0.3673  0.0404 -0.1043
 3117S        S 9921   9.138   6.232  18.296  0.0129  0.3239 -0.0258
 3118S        S 9922   4.852   9.322  12.599 -0.0403  0.2422  0.0047
 3119S        S 9923   6.306  10.264  28.230  0.3660  0.0880 -0.1055
 3120S        S 9924   7.108   9.798  19.536 -0.0371 -0.1269 -0.3358
 3121S        S 9925   8.565  11.233  16.960  0.1010 -0.0021  0.5772
 3122S        S 9926   5.201   0.648  28.385 -0.3281  0.1244 -0.3247
 3123S        S 9927   8.674  12.289  18.518  0.1646 -0.0116  0.5793
 3124S        S 9928   0.664  11.677  44.528 -0.2936 -0.2224 -0.0790
 3125S        S 9929   1.938   3.524  20.707  0.5463 -0.1727 -0.4284
 3126S        S 9930   0.064   4.949  24.383  0.1607  0.3932 -0.4327
 3127S        S 9931   8.011   5.940  23.789  0.8415 -0.8212  0.7370
 3128S        S 9932   2.413   5.754  28.009  0.1586 -0.5801  0.7368
 3129S        S 9933   6.671  11.422  15.772  0.0458 -0.3860 -0.2745
 3130S        S 9934   8.908   9.842  28.368  0.1044 -0.4396  0.0188
 3131S        S 9935   7.303   6.902  18.136  0.1480  0.7955 -0.2783
 3132S        S 9936  11.291   9.565  21.765  0.3289 -0.3271  0.2182
 3133S        S 9937   2.757  11.274  13.360  0.1669  0.0379  0.2713
 3134S        S 9938  11.846   6.971  13.114 -0.2877 -0.5084  0.1410
 3135S        S 9939   5.517   9.441  28.242  0.3600  0.5310  0.0688
 3136S        S 9940   4.771   2.867  23.736  0.4999  0.4083  0.1863
 3137S        S 9941   3.423   2.425  32.702  0.5131  0.0754 -0.5684
 3138S        S 9942  11.673   8.701  21.840  0.3214  0.0138  0.2396
 3139S        S 9943   7.875   4.973  16.810 -0.2552 -0.1763 -0.1654
 3140S        S 9944   8.258   6.347  23.192 -0.0577  0.3465 -0.3401
 3141S        S 9945   3.707  10.588  22.019  0.0201 -0.0788 -0.0042
 3142S        S 9946   1.175   3.567  13.856  0.0801  0.1973 -0.1660
 3143S        S 9947   6.319   2.132  24.885  0.3867  0.1094 -0.1985
 3144S        S 9948   5.671  12.351  27.895  0.4540  0.0349 -0.1810
 3145S        S 9949  10.069   8.843  24.097 -0.0343 -0.2987  0.2419
 3146S        S 9950   1.441   3.340  15.240 -0.1873 -0.0349 -0.1365
 3147S        S 9951   3.568  11.131  19.152 -0.3829  0.1906  0.5421
 3148S        S 9952   1.728  10.620  14.315  0.0448  0.0522 -0.1218
 3149S        S 9953   9.356   8.623  25.369 -0.0938  0.0444  0.3982
 3150S        S 9954   9.079   2.560  16.692 -0.1437  0.0270  0.1355
 3151S        S 9955   8.965   6.447  28.391  0.2921  0.1676  0.4536
 3152S        S 9956   9.177   4.102  18.231  0.0622 -0.0986 -0.3514
 3153S        S 9957   4.079   0.492  30.165  0.2790 -0.5357 -0.4020
 3154S        S 9958   0.747   8.508  14.070 -0.0515 -0.0195  0.4771
 3155S        S 9959   7.677   5.922  15.799  0.2203 -0.4579 -0.0109
 3156S        S 9960  10.208   7.774  13.655  0.3505  0.1089 -0.3943
 3157S        S 9961   4.829  11.100  13.102  0.2495 -0.0554  0.1435
 3158S        S 9962   7.631   1.283  11.585 -0.4591 -0.3205  0.2072
 3159S        S 9963  10.773   6.177  30.538  0.5498 -0.3017  0.3459
 3160S        S 9964   0.420   7.974  11.845 -0.0969 -0.6399 -0.4820
 3161S        S 9965   5.619   5.951  21.484 -0.1305  0.3382  0.0032
 3162S        S 9966   6.920   8.661  20.259 -0.5993 -0.2980  0.2749
 3163S        S 9967   8.720  10.228  16.482 -0.2661 -0.3467  0.2548
 3164S        S 9968   1.032   9.177  16.105 -0.0403  0.2353 -0.1510
 3165S        S 9969   0.480   1.499  25.406  0.1703  0.7958  0.0612
 3166S        S 9970   7.206  11.169  22.790 -0.1049  0.1161 -0.2879
 3167S        S 9971   2.414   0.284  25.976 -0.3797  0.5386 -0.2000
 3168S        S 9972   5.774   6.770  12.611  0.3439 -0.3578  0.0913
 3169S        S 9973   4.282  10.415  40.718 -0.2590  0.1456 -0.1115
 3170S        S 9974  10.897   1.219  12.289  0.2908  0.2391 -0.1266
 3171S        S 9975   9.169   9.306  19.063 -0.4224 -0.0683 -0.1827
 3172S        S 9976   2.530   6.338  12.398 -0.2123  0.4115  0.5813
 3173S        S 9977   2.824  11.118  16.420  0.2173 -0.0111 -0.1711
 3174S        S 9978   9.079   7.475  25.096 -0.3847  0.2448 -0.0156
 3175S        S 9979  12.307  10.108  12.926  0.4976  0.1897  0.0362
 3176S        S 9980   9.345   9.782  15.753  0.1586  0.0697  0.6958
 3177S        S 9981   3.634   1.651  13.107 -0.2351 -0.4204  0.6349
 3178S        S 9982   0.742   5.073  15.917  0.0867  0.0145  0.1298
 3179S        S 9983   4.374  12.146  27.427 -0.3288 -0.2595  0.2077
 3180S        S 9984  10.490  10.769  22.146 -0.6031 -0.3948 -0.5484
 3181S        S 9985  10.802   8.517  21.307  0.7403  0.5235 -0.1033
 3182S        S 9986   1.782  11.401  20.531  0.2921 -0.5508 -0.2453
 3183S        S 9987   9.348   2.317  17.022  0.1309 -0.0491 -0.0748
 3184S        S 9988  10.085  11.141  21.277  0.2015  0.5230 -0.0189
 3185S        S 9989   4.422   4.768  19.039  0.1216 -0.0454  0.0820
 3186S        S 9990   0.029   7.974  14.033  0.1945  0.4808 -0.1203
 3187S        S 9991   0.350   8.416  15.277  0.2038  0.4124 -0.4086
 3188S        S 9992   2.129   0.440  23.031  0.1526 -0.5250  0.6741
 3189S        S 9993   8.101   5.521  13.515  0.3207 -0.4306  0.0174
 3190S        S 9994   0.338   9.773  17.309  0.4276 -0.1418 -0.2228
 3191S        S 9995  10.637   1.333  23.924  0.2227  0.3157 -0.2370
 3192S        S 9996   6.969  11.174  27.859  0.1669  0.2569  0.2159
 3193S        S 9997   4.388   2.461  15.408 -0.2351  0.2241 -0.5535
 3194S        S 9998  12.083   0.157  20.484  0.6138 -0.1330 -0.1132
 3195S        S 9999  11.930   9.821  11.344 -0.3281 -0.0282 -0.3499
 3196S        S10000   8.147   3.937  27.793 -0.2796  0.0637 -0.5191
 3197S        S10001   6.298   3.509  30.455 -0.2005  0.4122  0.1008
 3198S        S10002   7.922  10.550  30.226  0.0598  0.3638  0.2286
 3199S        S10003   9.579   6.111  25.430 -0.0124  0.1912 -0.2007
 3200S        S10004   2.438  10.725  20.063  0.2711  0.3427 -0.0852
 3201S        S10005  10.267   3.144  30.149 -0.4282  0.0752  0.0117
 3202S        S10006   1.779   6.861  12.507  0.8110  0.0264  0.2809
 3203S        S10007   7.315   6.423  13.786  0.4609 -0.0578 -0.2649
 3204S        S10008  11.298  10.437  16.160 -0.0093  0.4753 -0.2045
 3205S        S10009   1.637   5.658  20.276  0.0217  0.3450  0.0159
 3206S        S10010   4.203   6.016  21.181 -0.1926  0.0483  0.5156
 3207S        S10011   6.460   9.972  30.484  0.1534 -0.1350 -0.4021
 3208S        S10012   4.226   3.934  14.865  0.0296  0.3603 -0.2836
 3209S        S10013   0.956   0.890  12.755  0.2446  0.3454  0.7795
 3210S        S10014   5.630   7.952  20.421 -0.1085 -0.0787  0.1310
 3211S        S10015   0.741  11.408  23.999 -0.0690 -0.2835 -0.3455
 3212S        S10016   7.376  11.026  25.308 -0.3634  0.0590  0.0882
 3213S        S10017   8.082   7.443  22.793 -0.4455 -0.7888  0.1624
 3214S        S10018   6.195  11.826  27.401  0.1343 -0.2480  0.2894
 3215S        S10019   7.636   2.150  12.521  0.1672 -0.3601  0.4773
 3216S        S10020   4.119   0.382  12.863  0.0936  0.3477  0.5469
 3217S        S10021   6.735   2.061  30.000  0.3132 -0.1356 -0.3312
 3218S        S10022   9.525   5.883  19.163 -0.0002 -0.0763  0.0075
 3219S        S10023   3.298  10.398  12.131 -0.7302  0.2586  0.1439
 3220S        S10024   8.721   9.075  15.617  0.3497 -0.0166  0.0281
 3221S        S10025   7.457  10.722  21.158  0.4005  0.3236  0.1568
 3222S        S10026   6.305  11.639  14.395  0.3231  0.1177 -0.1239
 3223S        S10027   8.281   8.100  28.754  0.2263 -0.3970  0.6262
 3224S        S10028   3.064   3.768  21.853 -0.6043 -0.2244 -0.5420
 3225S        S10029   7.211   0.621  21.006 -0.0597 -0.4121 -0.2353
 3226S        S10030   4.378   3.425  20.460  0.0602 -0.0368 -0.2115
 3227S        S10031   2.257  10.059  19.401 -0.2033 -0.0877 -0.4710
 3228S        S10032   7.108  10.922  12.371 -0.4386  0.2159  0.0592
 3229S        S10033   2.627   9.894  19.084  0.3111  0.4616  0.5814
 3230S        S10034   3.904   5.483  29.464 -0.8314 -0.2326 -0.1734
 3231S        S10035   8.152   2.826  21.293 -0.0920 -0.4025  0.4640
 3232S        S10036   9.884   5.031  28.500  0.1700 -0.0234  0.0381
 3233S        S10037  11.207   4.056  20.494 -0.0903 -0.0592  0.1844
 3234S        S10038   7.860   7.456  21.468  0.1531 -0.2266 -0.2033
 3235S        S10039  11.224   4.943  12.804  0.0624 -0.3791 -0.3129
 3236S        S10040   3.846   0.259  19.559  0.2202  0.0131  0.1499
 3237S        S10041   6.680   3.576  17.665  0.2890 -0.1471 -0.2638
 3238S        S10042   8.047   0.882  18.196 -0.0479  0.0081  0.2470
 3239S        S10043   7.984  11.595  20.812  0.3344  0.0845  0.2079
 3240S        S10044  11.043   3.251  31.234 -0.1915 -0.1865  0.1120
 3241S        S10045   8.385  10.598  22.292 -0.1809 -0.3239  0.1550
 3242S        S10046   3.377  11.506  19.421 -0.3069  0.8544  0.3103
 3243S        S10047   5.146   6.582  18.825  0.0493  0.0691 -0.3294
 3244S        S10048   7.933   5.016  12.719 -0.2055 -0.3988  0.1063
 3245S        S10049   9.493   2.851  24.418  0.0137  0.5573 -0.3573
 3246S        S10050   6.975   1.529  32.850  0.4848 -0.4463  0.2682
 3247S        S10051   8.871   6.011  32.330  0.0227  0.2147 -0.2996
 3248S        S10052  10.909   9.972  31.632  0.5228  0.2204  0.4062
 3249S        S10053   8.691  12.075  12.876  0.0342 -0.3393 -0.4852
 3250S        S10054   9.903   6.987  20.689 -0.1636 -0.0418 -0.1972
 3251S        S10055  10.726   8.934  16.381  0.4839 -0.0615  0.4586
 3252S        S10056  11.366   7.315  14.962  0.2391 -0.2542 -0.4502
 3253S        S10057   8.454   8.628   2.144 -0.1468 -0.1633  0.2443
 3254S        S10058   4.119  12.091  29.446  0.2576 -0.2991  0.1350
 3255S        S10059  11.117  12.177  28.436  0.2538  0.7847  0.2682
 3256S        S10060   4.401   0.323  13.568  0.2362 -0.0075 -0.2192
 3257S        S10061   4.751   1.076  21.057  0.0560  0.2537 -0.4440
 3258S        S10062   2.848   6.346  25.381 -0.0185  0.0458  0.2101
 3259S        S10063   2.777   3.455  24.368  0.3694 -0.4419 -0.2969
 3260S        S10064   2.964   6.832  25.523  0.0924 -0.2068 -0.7251
 3261S        S10065   9.909   1.585  12.480 -0.0250  0.0796  0.2535
 3262S        S10066   6.711   5.709  23.897 -0.0329 -0.6574  0.1165
 3263S        S10067   6.034   0.616  29.374 -0.2777  0.4484 -0.7022
 3264S        S10068   1.209   6.681  17.144 -0.2423  0.0491  0.2777
 3265S        S10069   4.208   6.708  21.685  0.1038 -0.2295 -0.0517
 3266S        S10070   7.824   6.122  11.956  0.1997 -0.1056 -0.1927
 3267S        S10071   1.938   7.550  31.688  1.0504  0.1532 -0.0283
 3268S        S10072   1.067   4.315  18.795 -0.4226 -0.1135  0.2953
 3269S        S10073   2.588   7.689  21.807  0.0201 -0.5305 -0.2780
 3270S        S10074   6.800   5.738  29.792  0.0903 -0.3823 -0.3704
 3271S        S10075   8.624   2.040  17.233 -0.0203 -0.6816 -0.0857
 3272S        S10076   9.208   6.176  27.470  0.0279 -0.0458  0.7961
 3273S        S10077   9.195   6.405  25.509 -0.4647  0.2414  0.1403
 3274S        S10078  11.280   8.432  20.396  0.1287 -0.0107 -0.5019
 3275S        S10079   6.238  11.087  29.167 -0.1530  0.3279  0.0799
 3276S        S10080  11.103   8.891  12.020  0.2882 -0.2199 -0.3632
 3277S        S10081   0.608   7.381  18.457 -0.3889 -0.1336 -0.4784
 3278S        S10082  11.013  11.009  24.201  0.1301  0.2546 -0.1373
 3279S        S10083   1.340   7.990  17.820  0.1498  0.5102  0.1395
 3280S        S10084   7.395  12.321  12.443 -0.7885  0.1252  0.1434
 3281S        S10085   5.121  10.164  31.200  0.4708  0.3962  0.0518
 3282S        S10086   4.831   3.910  22.556  0.1614  0.4025 -0.0121
 3283S        S10087   5.284  10.540  23.372 -0.0436 -0.0505  0.6621
 3284S        S10088   4.948   3.566  25.953 -0.2014  0.5408  0.0370
 3285S        S10089  11.322  11.937  15.883 -0.0313  0.2107 -0.2335
 3286S        S10090   9.532   3.623  12.821 -0.2637  0.3149  0.2005
 3287S        S10091   6.202   1.247  30.318  0.3125  0.7974  0.2753
 3288S        S10092   9.708   6.611  26.817  0.0173  0.0980 -0.2284
 3289S        S10093   1.569  10.386  23.542 -0.6238  0.1467 -0.0289
 3290S        S10094  11.078  11.704  11.088 -0.3543  0.2786 -0.0419
 3291S        S10095  11.403  11.534  13.733  0.0212  0.3075  0.5892
 3292S        S10096   3.494   7.470  17.374 -0.0142  0.0264  0.1584
 3293S        S10097   0.748   9.571  30.244  0.6601 -0.3727 -0.0507
 3294S        S10098   3.066   7.341  10.622  0.2012 -0.0487 -0.3590
 3295S        S10099   3.797   0.733  23.031 -0.6320 -0.0399  0.1938
 3296S        S10100  10.316   4.106   8.990 -0.0997 -0.0631 -0.1419
 3297S        S10101   8.115   6.936  21.407 -0.1354 -0.0031 -0.4596
 3298S        S10102   0.671   9.035  26.273  0.0807 -0.3716 -0.4319
 3299S        S10103   4.058   5.043  17.214  0.2758  0.4174  0.3576
 3300S        S10104   3.306   1.995  22.460  0.5545 -0.1439  0.1618
 3301S        S10105   0.268   6.817  11.472 -0.3141 -0.0905 -0.2261
 3302S        S10106   5.577   1.272  18.532  0.3511 -0.4854 -0.2976
 3303S        S10107   9.465   2.815  29.127 -0.8319 -0.0290 -0.3743
 3304S        S10108   4.946  11.054  14.508  0.2549 -0.0038  0.3272
 3305S        S10109   8.504  10.843  13.575 -0.2735  0.3711  0.1093
 3306S        S10110   9.959   9.180  31.780 -0.2860  0.4625 -0.9241
 3307S        S10111   2.372   4.042  29.374 -0.5521 -0.0513 -0.3146
 3308S        S10112   1.441   5.063  11.991 -0.4925 -0.3266 -0.1737
 3309S        S10113  11.532   3.217  14.123 -0.0211  0.1987 -0.0147
 3310S        S10114  11.955   2.563  14.983 -0.0875  0.1496  0.5899
 3311S        S10115  10.623   9.842  16.942  0.1855  0.3365 -0.0617
 3312S        S10116   2.751   5.965  29.292 -0.3900 -0.1201  0.5964
 3313S        S10117   8.140   2.519  18.851 -0.3721 -0.6733  0.2678
 3314S        S10118  10.538   5.177  27.096  0.4075 -0.3990  0.2343
 3315S        S10119   4.498   7.167  15.377 -0.7193 -0.1322 -0.1476
 3316S        S10120   2.768   7.861  18.049  0.7985  0.2779 -0.2418
 3317S        S10121  11.662   8.928  18.434  0.6622  0.0545  0.1645
 3318S        S10122  11.905   5.785  21.551  0.7428  0.1294  0.4121
 3319S        S10123   2.977   7.086  13.638  0.1667 -0.0555 -0.4051
 3320S        S10124   4.184   9.082  17.157 -0.1527 -0.0021 -0.2262
 3321S        S10125   0.044   9.476  14.776  0.4208  0.3152 -0.1965
 3322S        S10126   3.562   7.777  26.292  0.7389  0.8023  0.2341
 3323S        S10127   2.156  11.105  20.350 -1.3057  0.0353  0.3647
 3324S        S10128  11.326   3.619  13.143  0.0241  0.3453  0.3413
 3325S        S10129   9.826  12.329  13.406 -0.0852 -0.2816  0.4074
 3326S        S10130   6.683   0.795  22.079 -0.0329  0.6652  0.2923
 3327S        S10131   3.298   2.157  14.176 -0.3263  0.4906  0.5436
 3328S        S10132   5.243  10.728  17.562  0.1050 -0.4398  0.3277
 3329S        S10133   1.746   6.120  23.793  0.2781 -0.7702  0.7063
 3330S        S10134   0.502   4.840  25.884 -0.2455 -0.3015  0.4691
 3331S        S10135   7.392   6.403  28.081 -0.1584 -0.0774 -0.1328
 3332S        S10136   6.041   6.962  20.071 -0.1267 -0.1665  0.5451
 3333S        S10137   4.941   1.021  29.059 -0.0553  0.4868  0.0983
 3334S        S10138   4.476  12.026  19.100  0.1689 -0.2204 -0.2114
 3335S        S10139   3.414   1.034  18.750 -0.0603  0.2647 -0.2067
 3336S        S10140  11.456   5.521  28.664 -0.3121  0.1658  0.1614
 3337S        S10141   8.793   0.912  23.088 -0.1234 -0.0602  0.3898
 3338S        S10142  10.378   5.120  22.837 -0.1005  0.1735 -0.7398
 3339S        S10143   0.942  10.564  18.256 -0.0057 -0.1169 -0.4694
 3340S        S10144   8.130   7.791  27.599  0.4250 -0.0281 -0.3099
 3341S        S10145   0.908   8.357  12.116 -0.1688  0.3648 -0.4871
 3342S        S10146  11.639   2.377  32.520 -0.1302 -0.4572 -0.5960
 3343S        S10147   6.701  12.038  14.303 -0.0840 -0.1795  0.1655
 3344S        S10148   4.788   7.205  20.186  0.0610 -0.6105 -0.3389
 3345S        S10149   4.182  11.424  19.825  0.1763  0.0882 -0.0894
 3346S        S10150   3.023   4.042  19.193 -0.3509  0.3070  0.1769
 3347S        S10151   7.690  10.664  16.970 -0.3209  0.3158  0.2970
 3348S        S10152   1.279   2.954  20.345  0.1680 -0.4030  0.3679
 3349S        S10153   9.595  10.242  25.313 -0.2225  0.0013 -0.2416
 3350S        S10154  11.280   0.868  26.165  0.0237 -0.2121  0.6583
 3351S        S10155   4.721   0.592  20.797 -0.0349 -0.4721  0.3260
 3352S        S10156   9.527   4.234  15.992 -0.0843  0.2197 -0.1465
 3353S        S10157   5.761  11.590  27.788 -0.2698  0.3308  0.1131
 3354S        S10158   1.392  11.998  18.053 -0.3325 -0.2253  0.5379
 3355S        S10159   8.067   5.523  24.134  0.7346  0.5588 -0.2666
 3356S        S10160   9.374   6.878  15.084 -0.0075  0.2779  0.3902
 3357S        S10161   6.233   8.017  22.903  0.3144 -0.1109 -0.0558
 3358S        S10162   1.240   2.754  14.409 -0.2929 -0.0143  0.3221
 3359S        S10163   3.753   6.255  17.964 -0.3272  0.1414  0.0170
 3360S        S10164   3.031   0.689  19.911 -0.5841  0.8257  0.2431
 3361S        S10165   1.839  11.360  19.060 -0.2709 -0.2384  0.4370
 3362S        S10166   7.215  11.303  11.302  0.1578 -0.2429  0.1384
 3363S        S10167   6.980   6.967  14.972  0.1488  0.2531  0.0282
 3364S        S10168   2.692   4.185  16.097 -0.1720 -0.0722 -0.4424
 3365S        S10169   7.338  12.043  22.688 -0.0826  0.1011 -0.0277
 3366S        S10170   2.448   0.286  19.669 -0.1437 -0.0105 -0.1662
 3367S        S10171  12.310  12.185  21.961  0.1849  0.1123  0.0105
 3368S        S10172   3.041   8.854  28.405 -0.0154  0.4824 -0.3472
 3369S        S10173   2.321   9.957  23.150  0.2081  0.0396  0.2109
 3370S        S10174   6.816   5.261  20.865  0.0571  0.2700 -0.0661
 3371S        S10175   2.720   2.345  20.346 -0.5213 -0.1614  0.1455
 3372S        S10176   8.734  10.616  29.350 -0.2525 -0.5679 -0.2062
 3373S        S10177  10.506   5.873  30.188 -0.5613  0.0221 -0.6435
 3374S        S10178  10.245   3.402  14.674 -0.0719  0.4840 -0.2191
 3375S        S10179   1.135   0.796  17.560  0.6627  0.1984  0.0234
 3376S        S10180  10.293   8.860  25.126  0.0953  0.0998  0.0551
 3377S        S10181   7.137   0.332  24.003  0.1231 -0.3390  0.1078
 3378S        S10182  10.739   9.675  26.753  0.2256  0.2148 -0.4894
 3379S        S10183   7.944   8.679  12.460 -0.7076  0.2417 -0.2462
 3380S        S10184   4.907  10.061  19.813  0.4377 -0.6081 -0.3227
 3381S        S10185   4.639  12.353  20.143  0.0698 -0.2325  0.4341
 3382S        S10186   1.212   1.722  13.559  0.1161  0.2883 -0.0587
 3383S        S10187   8.678   2.538  29.201  0.3143 -0.1093 -0.0523
 3384S        S10188   5.426   2.505  15.240  0.0489  0.1887 -0.4427
 3385S        S10189  11.383   8.776  22.262 -0.1784  0.1867  0.5534
 3386S        S10190   8.999   0.963  20.293  0.1088  0.3312  0.5108
 3387S        S10191   3.648   0.891  25.439  0.4406  0.3059  0.2070
 3388S        S10192   0.274   3.703  16.296  0.2556 -0.1644 -0.1422
 3389S        S10193   8.938  11.765  13.522  0.2105 -0.3332 -0.2692
 3390S        S10194  11.700   1.439  15.750 -0.0303 -0.0968 -0.3019
 3391S        S10195   5.674   4.129  15.898 -0.1585 -0.4701 -0.0373
 3392S        S10196   5.025  10.614  12.857  0.3318  0.1567 -0.2273
 3393S        S10197  12.276   4.830  40.972  0.2114  0.3169  0.2366
 3394S        S10198   5.112   3.939  22.123 -0.1002  0.9272  0.5311
 3395S        S10199  12.328   4.028  18.134  0.0029  0.0344 -0.0208
 3396S        S10200   2.908   2.187  28.762  0.0399 -0.6961 -0.1481
 3397S        S10201   0.068   7.293  18.162  0.1004  0.2225  0.5738
 3398S        S10202   6.089   6.296  30.578  0.7762  0.5215 -0.4327
 3399S        S10203   6.219   6.472  28.364  0.0173  0.3487 -0.1674
 3400S        S10204   0.410   4.808  26.475  0.4468 -0.2363 -0.4530
 3401S        S10205  12.254   6.648  21.307  0.5383 -0.1700 -0.0430
 3402S        S10206   0.217   8.158  17.785  0.0645  0.8543  0.4029
 3403S        S10207   6.497   1.092  14.715  0.0802  0.4726  0.1133
 3404S        S10208   8.714   3.675  29.912  0.2491 -0.6772 -0.3039
 3405S        S10209   4.719   9.911  26.061 -0.1444 -0.1453  0.1366
 3406S        S10210   4.735  11.260  21.080  0.0030  0.2851 -0.0089
 3407S        S10211   5.793   6.159  13.578  0.2328  0.3582  0.1662
 3408S        S10212   3.006   4.894  14.922 -0.8838 -0.2549  0.2447
 3409S        S10213   7.167   5.563  20.073  0.4551 -0.1963  0.1530
 3410S        S10214   0.082   5.307  11.890 -0.4699  0.5145  0.2094
 3411S        S10215   3.689  11.914  27.845 -0.2000  0.2168 -0.0480
 3412S        S10216   7.852   6.451  15.993 -0.1579  0.0534 -0.0450
 3413S        S10217   9.431   3.314  24.906 -0.0537 -0.0874  0.0648
 3414S        S10218  11.162   6.319  14.990 -0.0923 -0.4329  0.1734
 3415S        S10219   8.422   1.791  16.131  0.0425  0.1687 -0.5717
 3416S        S10220   8.972   2.561  26.402 -0.3317  0.2808  0.0979
 3417S        S10221   2.826   0.410  11.535  0.1843 -0.3325 -0.1077
 3418S        S10222   8.425   5.623  16.166  0.0477 -0.1546 -0.1442
 3419S        S10223   9.754  10.164  31.099 -0.6600 -0.5056 -0.2139
 3420S        S10224  11.814   4.250  27.197  0.2818  0.4878 -0.0846
 3421S        S10225  11.632   3.326  36.265  0.0412 -0.1874 -0.0039
 3422S        S10226  11.273   0.009  14.849  0.8111  0.0540  0.4804
 3423S        S10227   5.061  12.127  14.769 -0.2269  0.2619  0.3358
 3424S        S10228  10.465   3.748  21.496  0.0421 -0.8118  0.1516
 3425S        S10229   2.713  10.365  20.315 -0.0844 -0.4318  0.7831
 3426S        S10230   3.389  10.727  27.761  1.0313 -0.5420 -0.0955
 3427S        S10231   7.810   5.753  21.339  0.0046 -0.1757  0.4860
 3428S        S10232   8.699   6.444  21.657 -0.0883  0.3180 -0.0291
 3429S        S10233   1.866   9.965  23.391 -0.3823  0.0014  0.2757
 3430S        S10234  11.621   4.703  19.821  0.1535 -0.0521  0.1019
 3431S        S10235  10.970   9.726  20.009  0.6145 -0.2637  0.1733
 3432S        S10236  11.844   3.976  22.837  0.1731 -0.5843 -0.2495
 3433S        S10237  11.956   6.539  11.396 -0.0344  0.3641  0.3080
 3434S        S10238   5.139  11.040  13.928  0.3127 -0.3592 -0.6599
 3435S        S10239   8.488   2.250  31.592 -0.1293 -0.1260  0.0282
 3436S        S10240   3.720   2.346  24.306  0.5163  0.4468 -0.1361
 3437S        S10241  10.908   3.459  17.048  0.5869  0.0130 -0.2904
 3438S        S10242   3.105   6.036  23.026 -0.1037  0.1768 -0.6142
 3439S        S10243  10.543   7.006  27.745  0.3129  0.3230 -0.3065
 3440S        S10244   0.744   2.021  25.068  0.0100 -0.0008  0.3437
 3441S        S10245   7.858   0.586  27.065 -0.0129  0.7488  0.3741
 3442S        S10246  10.990   4.574  27.472 -0.1114 -0.1298 -0.0178
 3443S        S10247   3.666   8.938  19.672  0.4566  0.1406 -0.0090
 3444S        S10248   0.779  10.348  30.493 -0.5336 -0.5310 -0.3142
 3445S        S10249   7.484   4.228  12.468 -0.0529 -0.6716 -0.1915
 3446S        S10250  11.836   1.863  27.196 -0.1923  0.4066  0.0303
 3447S        S10251   0.355   1.488  11.763 -0.2357 -0.4048 -0.1932
 3448S        S10252   5.927   8.361  28.878 -0.4016  0.0571  0.0126
 3449S        S10253   5.346   0.194  28.725 -0.1647  0.0196 -0.3411
 3450S        S10254   3.386   2.318  21.041 -0.0269 -0.3245  0.2674
 3451S        S10255   9.491   7.104  14.175  0.3250 -0.0509 -0.1403
 3452S        S10256   2.713   7.580  26.751 -0.2429  0.2929 -0.2884
 3453S        S10257   1.259   8.723  23.747 -0.2179 -0.1987 -0.1195
 3454S        S10258   4.319  11.240  24.828  0.6522  0.7715  0.0354
 3455S        S10259   5.861   4.491  25.958 -0.1288 -0.5440 -0.1690
 3456S        S10260   4.383   7.781  21.550  0.3857  0.2281 -0.4880
 3457S        S10261  11.210  12.146  15.354 -0.3565 -0.3461 -0.4369
 3458S        S10262   3.978   6.978  14.731 -0.2781 -0.0448  0.1109
 3459S        S10263  11.869   0.709  30.300 -0.2224  0.5843 -0.7982
 3460S        S10264   1.003   7.468  23.979 -0.7504 -0.2472 -0.2319
 3461S        S10265   2.734   8.397  18.444  0.2183 -0.0747  0.2439
 3462S        S10266   8.497   8.565  29.797 -0.0153 -0.0325  0.2254
 3463S        S10267   8.939   3.433  28.538 -0.2198  0.1915 -0.5186
 3464S        S10268  10.403   7.465  16.499  0.0750 -0.0244 -0.0889
 3465S        S10269   1.875   9.548  28.599  0.4811 -0.1578  0.7072
 3466S        S10270  10.073   6.670  18.152  0.3138  0.2790  0.2243
 3467S        S10271   4.017   0.592  19.955 -0.0479 -0.3231  0.2858
 3468S        S10272   1.180   9.748  25.450  0.5099 -0.3967 -0.3383
 3469S        S10273   3.641  12.249  28.184 -0.2252  0.3096  0.9659
 3470S        S10274   5.812   2.778  27.489 -0.2218 -0.3624  0.5545
 3471S        S10275   6.255   7.522  28.474 -0.3557  0.1215 -0.2900
 3472S        S10276   8.317   0.253  27.186  0.2597  0.0527 -0.0280
 3473S        S10277   8.801   4.226  27.275  0.0807  0.3671 -0.3693
 3474S        S10278  12.004   9.845  13.989  0.2949  0.2835  0.1437
 3475S        S10279   6.856   8.910  11.558 -0.2103  0.0393  0.2742
 3476S        S10280  11.747   8.886  16.187  0.1775  0.1156 -0.3167
 3477S        S10281   1.766  10.144  30.904  0.0465  0.0115  0.4726
 3478S        S10282  11.082   8.128  17.309  0.0896  0.0859  0.3062
 3479S        S10283  10.315   8.444  19.039 -0.0408  0.3773  0.0607
 3480S        S10284   6.187  11.879  25.304  0.0749 -0.1902 -0.1189
 3481S        S10285   3.230   1.383  20.672 -0.0162 -0.0449 -0.3099
 3482S        S10286   4.792   6.546  26.105 -0.5072  0.2272  0.4029
 3483S        S10287   0.810   1.742  23.372 -0.1084 -0.1419 -0.1982
 3484S        S10288   8.447  11.417  24.031  0.1650  0.2230 -0.1871
 3485S        S10289   0.675   8.660  26.667 -0.0618  0.7395  0.0781
 3486S        S10290  11.246   8.244  19.489 -0.6354 -0.2089 -0.1493
 3487S        S10291   5.696   6.712  19.097 -0.1143 -0.1785 -0.1999
 3488S        S10292  10.363   2.502  28.685  1.0422  0.2763  0.6552
 3489S        S10293   3.560   9.505  11.838  0.2218 -0.0881 -0.3525
 3490S        S10294   9.550   6.607  20.509  0.5181 -0.2241 -0.1164
 3491S        S10295   0.816   4.084  13.770 -0.0928  0.0336  0.2571
 3492S        S10296   5.595   8.195  22.240 -0.4337 -0.2009 -0.0324
 3493S        S10297   4.774   2.668  21.258  0.0860  0.0040  0.1975
 3494S        S10298   8.212   8.686  12.024  0.1026 -0.5315 -0.1287
 3495S        S10299  10.232   6.199  12.937  0.1543 -0.3057 -0.3151
 3496S        S10300   8.025  10.591  13.233  0.1088 -0.1255  0.2289
 3497S        S10301   6.392   5.460  29.521  0.6505  0.5462 -0.1194
 3498S        S10302   6.654   8.407  21.512 -0.1383  0.3467 -0.3072
 3499S        S10303  11.666   9.054  18.942  0.4989  0.0329 -0.1239
 3500S        S10304   5.955   2.390  15.071 -0.5668 -0.1707 -0.6907
 3501S        S10305   2.817   9.890  13.234  0.1643  0.3847  0.5297
 3502S        S10306   9.006   7.363  20.660 -0.2594  0.2791  0.0029
 3503S        S10307   1.976  11.413  17.441  0.0432  0.5478  0.6558
 3504S        S10308   3.096   6.405  25.843  0.3399  0.4858 -0.4109
 3505S        S10309  11.276   8.607  27.797 -0.2618 -0.6168 -0.0794
 3506S        S10310   5.387   2.098  11.985  0.0442  0.0004 -0.0556
 3507S        S10311   6.574   1.686  18.232 -0.3903  0.6074  0.1881
 3508S        S10312   9.319   7.754  38.575 -0.1311  0.0442  0.3159
 3509S        S10313   3.759   9.139  27.997 -0.1512  0.3410 -0.4472
 3510S        S10314  11.558   7.446  22.794  0.0527 -0.4509 -0.0060
 3511S        S10315  11.684   2.939  24.818 -0.1365  0.2797  0.3006
 3512S        S10316   3.460   6.407  23.239  0.1620  0.3783  0.5198
 3513S        S10317   7.774   6.941  19.234 -0.2572  0.3220 -0.5502
 3514S        S10318   7.400   0.657  32.581 -0.5665  0.0053  0.4863
 3515S        S10319   0.681  10.755  29.674  0.2285  0.2581 -0.1284
 3516S        S10320   0.234   8.691  12.781  0.5541  0.3614 -0.0259
 3517S        S10321   9.080  11.833  28.796  0.7817 -0.0280 -0.1532
 3518S        S10322   1.562   6.409  16.242  0.1907  0.0355  0.0683
 3519S        S10323   2.760   2.059  14.342 -0.1326  0.1591 -0.0665
 3520S        S10324  10.587  11.866  20.352 -0.3073 -0.5944 -0.0519
 3521S        S10325   5.429   7.869  24.473  0.0803  0.3228  0.0607
 3522S        S10326  10.996   9.371  15.966 -0.4289  0.0744  0.0679
 3523S        S10327   6.166   6.217  17.824 -0.8670  0.3898  0.0461
 3524S        S10328  11.797   4.209  17.778 -0.2611 -0.1617 -0.5311
 3525S        S10329   7.274  10.722  22.429 -0.5075  0.5156 -0.3477
 3526S        S10330   6.291   4.768  11.810 -0.1119  0.1337  0.1512
 3527S        S10331   3.753   8.322  24.038 -0.2189 -0.0428 -0.4160
 3528S        S10332   4.519   1.299  29.148 -0.0336 -0.4429 -0.1748
 3529S        S10333   8.380   0.833  17.580  0.0352 -0.1422 -0.3624
 3530S        S10334   2.685   0.873  24.280 -0.4372 -0.3653  0.2570
 3531S        S10335   9.143   8.685  27.704  0.7927  0.0550  0.0432
 3532S        S10336   4.005  10.098  17.883  0.8143 -0.3753  0.0687
 3533S        S10337   3.236   3.709  26.448  0.2307 -0.2255  0.3958
 3534S        S10338   1.348  12.104  21.632 -0.2303  0.0489  0.0679
 3535S        S10339  11.386   6.200  20.726  0.3147 -0.0047  0.6073
 3536S        S10340   1.563   9.983  13.138  0.2166  0.3588 -0.3947
 3537S        S10341   7.261   3.852  27.602  0.4792 -0.4675  0.1493
 3538S        S10342   4.687   8.483  23.538 -0.5487 -0.7837 -0.4503
 3539S        S10343   2.478   8.071  23.808 -0.0932 -0.2952  0.1025
 3540S        S10344   6.133   3.562  23.476 -0.3460 -0.1762  0.1722
 3541S        S10345   3.040   8.675  26.823  0.3095  0.1178 -0.3273
 3542S        S10346   8.872   2.438  28.310 -0.0814 -0.4908  0.1978
 3543S        S10347   8.720   7.670  16.072 -0.2506  0.6101 -0.2418
 3544S        S10348   3.677  10.535  20.438 -0.5947 -0.1417  0.0828
 3545S        S10349   6.396   1.782  20.880  0.1572  0.1669  0.5133
 3546S        S10350  10.501   0.440  18.049 -0.2330 -0.2353 -0.6074
 3547S        S10351  11.137   6.243  20.098  0.1553  0.1226 -0.4419
 3548S        S10352   7.559  12.263  13.315  0.1520  0.2334  0.1421
 3549S        S10353  10.618   6.581  12.773  0.0902  0.2260  0.1807
 3550S        S10354   4.152   1.774  23.151 -0.0858  0.1721 -0.2325
 3551S        S10355  12.170   4.774  11.847  0.1875  0.0580  0.1852
 3552S        S10356   6.029   0.421  22.193 -0.0946  0.0831  0.0153
 3553S        S10357   7.771   1.034  31.708 -0.3519  0.2235  0.2241
 3554S        S10358   0.324   7.552  16.077  0.0709 -0.0869 -0.3441
 3555S        S10359   8.764   3.216  17.899 -0.1011  0.2430  0.0703
 3556S        S10360   4.791   5.843  23.624 -0.0201 -0.0022 -0.0384
 3557S        S10361   5.160   5.796  26.224  0.1532 -0.0648 -0.7062
 3558S        S10362   7.432   7.071  25.317  0.0155 -0.0165 -0.0433
 3559S        S10363   2.539   7.122  19.315  0.0747  0.0216 -0.1058
 3560S        S10364   1.966   9.059  27.203 -0.0283 -0.1398  0.5205
 3561S        S10365   5.581   6.080  17.717  0.3445 -0.0810  0.4541
 3562S        S10366   6.457  12.144  23.902  0.0158 -0.1398 -0.5962
 3563S        S10367  12.283   2.355  18.668  0.0404 -0.4048 -0.6104
 3564S        S10368   1.526   5.403  14.655 -0.2511 -0.2740 -0.3255
 3565S        S10369   8.233   6.006  27.823 -0.4812 -0.4863  0.2688
 3566S        S10370   0.181   5.276  32.377  0.1151  0.1709  0.1843
 3567S        S10371   3.422   4.351  29.609 -0.2166  0.1110 -0.4655
 3568S        S10372   3.207   2.706  19.113  0.7024 -0.0055  0.3895
 3569S        S10373   7.802   7.182  25.843 -0.2640 -0.2167 -0.0163
 3570S        S10374   3.241   2.450  27.374 -0.6079  0.1376  0.0441
 3571S        S10375   8.708   7.473  17.073  0.3834  0.0607 -0.1642
 3572S        S10376   5.734  10.343  23.653 -0.3116  0.1418 -0.3770
 3573S        S10377  11.151   7.221  10.627  0.0887  0.1315 -0.0050
 3574S        S10378   0.375   2.429  28.973 -0.0266  0.3022 -0.2200
 3575S        S10379   1.017   9.763  26.307  0.1005 -0.0850  0.0460
 3576S        S10380   0.097  10.151  19.829  0.0141  0.3382 -0.5227
 3577S        S10381  10.041   1.969  27.056 -0.4104 -0.7762 -0.2427
 3578S        S10382   9.855   0.208  21.833  0.5047 -0.3261 -0.2296
 3579S        S10383   2.514   6.586  25.880 -0.0145 -0.4168 -0.2186
 3580S        S10384   6.516   7.342  24.515  0.5225  0.8042  0.4074
 3581S        S10385   8.673   3.191  25.734  0.2813 -0.1506 -0.0477
 3582S        S10386  11.701   6.196  19.775  0.1968 -0.1938  0.1410
 3583S        S10387   4.606   9.674  14.935 -0.3008 -0.1237 -0.1721
 3584S        S10388   7.923   4.613  27.248  0.2224  0.4255 -0.1905
 3585S        S10389  11.459   5.689  19.631 -0.2995  0.2617  0.1969
 3586S        S10390  11.349   5.551  27.094 -0.1362  0.1287  0.7003
 3587S        S10391   0.416   8.021  26.561  0.0080  0.3693  0.1751
 3588S        S10392  11.938   5.637  17.267 -0.1138 -0.0795 -0.1994
 3589S        S10393   8.638   1.250  30.408 -0.0334  0.0621  0.2400
 3590S        S10394  11.637  11.511  26.959  0.1435 -0.0173 -0.4393
 3591S        S10395   2.552   3.409  15.392  0.1533 -0.0626  0.4966
 3592S        S10396  11.662   9.805  28.164  0.7663  0.0273  0.1671
 3593S        S10397   3.269   1.504  19.001  0.5145  0.2035 -0.0705
 3594S        S10398   9.047  10.712  11.915  0.1165  0.1625 -0.2405
 3595S        S10399   4.504   6.626  17.298 -0.2539 -0.2282 -0.3201
 3596S        S10400  10.753  10.380  20.308 -0.3047  0.5273 -0.0566
 3597S        S10401   7.345   4.705  31.600  0.3906 -0.1802  0.0804
 3598S        S10402   2.539   0.124  30.720  0.3280 -0.3552  0.3298
 3599S        S10403   7.826   6.698  16.508  0.0934  0.1558  0.1296
 3600S        S10404  11.206   3.532  35.893  0.0998 -0.2402  0.2849
 3601S        S10405   0.034  10.188  19.031 -0.0819 -0.3004  0.2918
 3602S        S10406   2.000  10.601  32.116  0.4738  0.0384 -0.2875
 3603S        S10407   1.419   4.330  26.320 -0.3532 -0.1804 -0.1226
 3604S        S10408   6.065   9.141   3.971 -0.1756  0.4209  0.7403
 3605S        S10409   9.988   2.869  30.878  0.3195  0.1831  0.0534
 3606S        S10410   1.021   6.643  31.599  0.0809 -0.0537  0.0613
 3607S        S10411   3.708   9.046  25.309 -0.1698  0.1648  0.5876
 3608S        S10412  10.284  10.380  27.180 -0.2063  0.5862 -0.2497
 3609S        S10413   9.170  12.270  17.712 -0.3995 -0.1684 -0.0153
 3610S        S10414   8.647   8.749  27.884  0.3955 -0.1819  0.0645
 3611S        S10415  11.269   6.160  15.913  0.1453 -0.0832 -0.3205
 3612S        S10416   4.185  10.530  12.567 -0.2585  0.0544 -0.1299
 3613S        S10417   9.495   6.885  19.753 -0.2284  0.4262  0.0715
 3614S        S10418   0.465  10.664  23.284 -0.5889  0.1919 -0.1384
 3615S        S10419   8.750   7.940  17.337  0.1087 -0.1377 -0.1883
 3616S        S10420   4.674   9.528  18.821  0.0818  0.2248  0.3541
 3617S        S10421   0.375   5.935  14.081 -0.1861 -0.4843 -0.3915
 3618S        S10422   3.142   1.512  17.215 -0.3117 -0.3251 -0.5351
 3619S        S10423   7.849   4.154  26.849  0.5331  0.1234  0.2608
 3620S        S10424  11.870   9.706  25.282  0.1467 -0.1091  0.3519
 3621S        S10425   2.298   3.992  17.837 -0.1402  0.0974  0.1735
 3622S        S10426   4.244   6.000  20.344  0.0634  0.1777 -0.1806
 3623S        S10427   6.890   7.986  17.357  0.0067 -0.0281  0.2793
 3624S        S10428   0.166   3.345  12.656 -0.1308  0.1527  0.4241
 3625S        S10429   2.993   1.895  21.186 -0.2349  0.3077 -0.2108
 3626S        S10430  11.824  12.318  31.699  0.1617  0.4588 -0.5165
 3627S        S10431   3.037   1.354  12.548 -0.0967  0.3849  0.4116
 3628S        S10432   1.428  10.799  12.896  0.2873 -0.1398  0.1287
 3629S        S10433   3.477  10.689  29.004 -0.3422  0.3915  0.1375
 3630S        S10434   7.398   7.366  19.191 -0.0236 -0.0391  0.3329
 3631S        S10435   2.818   8.817  27.316  0.3920  0.0011 -0.0095
 3632S        S10436   4.517   9.341  12.128 -0.0454  0.2336  0.2388
 3633S        S10437   1.374  10.609  26.576 -0.0701  0.3694  0.0454
 3634S        S10438   3.012   8.022  28.000 -0.1140  0.3487 -0.2994
 3635S        S10439  11.352   3.069  15.724  0.0997  0.4072 -0.2591
 3636S        S10440   9.285   4.183  26.651  0.2781  0.0122 -0.3681
 3637S        S10441   7.953   4.193  18.311  0.2129 -0.3034 -0.2850
 3638S        S10442   7.142   6.023  29.584 -0.0415  0.0987  0.1684
 3639S        S10443   2.513   7.956  15.313 -0.0963  0.1569 -0.3733
 3640S        S10444   9.388   0.417  15.992  0.0045 -0.0183 -0.4656
 3641S        S10445   5.906  10.308  21.899  0.1015 -0.0323 -0.4100
 3642S        S10446   4.241  11.859  28.867  0.2759  0.1212 -0.6675
 3643S        S10447   1.291   0.771  11.811  0.3545 -0.1376  0.2522
 3644S        S10448   0.304   4.741  11.543  0.2891 -0.0536 -0.2710
 3645S        S10449   8.931   3.694  19.218 -0.3468 -0.1756  0.4108
 3646S        S10450   0.868   4.715  17.103 -0.0233  0.6026  0.0943
 3647S        S10451   8.258   4.736  25.054  0.3347  0.0128  0.6851
 3648S        S10452  10.110   9.731  17.630 -0.0537  0.3225 -0.0272
 3649S        S10453   8.011   1.903  21.489 -0.4104 -0.0842 -0.3287
 3650S        S10454   4.025   4.350  28.278  1.0985  0.0973  0.2357
 3651S        S10455   3.327   9.838  23.254  0.0835  0.4319 -0.2824
 3652S        S10456   5.019   5.526  14.842  0.1449 -0.1486  0.3357
 3653S        S10457   5.706  11.948  15.026 -0.3235  0.0291 -0.1528
 3654S        S10458   3.384   9.743  15.114  0.0972  0.2542 -0.1987
 3655S        S10459   5.810   6.191  19.460  0.3492 -0.2536 -0.3038
 3656S        S10460   5.602   1.294  19.107  0.4090  0.0986 -0.0962
 3657S        S10461   8.006   8.405  18.601  0.4371 -0.3667  0.0009
 3658S        S10462   9.325   0.533  20.012 -0.2814  0.4395 -0.0132
 3659S        S10463   2.948   4.597  18.320 -0.3174 -0.5153 -0.1729
 3660S        S10464   9.210   1.764  24.578  0.2154  0.0650 -0.0693
 3661S        S10465   0.971   1.012  19.867  0.0194  0.1089  0.6996
 3662S        S10466   1.314   5.913  12.339  0.3542  0.1248  0.0491
 3663S        S10467   8.141   8.677  19.277 -0.0056 -0.1591 -0.0334
 3664S        S10468   1.757   6.269  11.777  0.1329  0.3819  0.4266
 3665S        S10469  11.560   4.934  15.011  0.3103  0.2836 -0.4124
 3666S        S10470   1.962   3.089  31.298  0.5336  0.0159  0.1204
 3667S        S10471   3.699   5.126  22.743  0.0735 -0.1756 -0.2583
 3668S        S10472   4.134   7.135  18.465  0.7164 -0.2213 -0.0440
 3669S        S10473   9.604   0.418  49.359  0.3153 -0.1647 -0.2123
 3670S        S10474   1.704   6.039  18.973 -0.7272 -0.0163 -0.1285
 3671S        S10475   0.571   6.520  18.866  0.3015  0.2878  0.0358
 3672S        S10476   7.591   2.438  18.706  0.1931 -0.4940 -0.2960
 3673S        S10477   5.854  10.575  17.581  0.0425  0.3562  0.5997
 3674S        S10478   3.544   8.946  31.156  0.2256 -0.4415 -0.4089
 3675S        S10479  11.363   3.965  23.429  0.0204  0.0333 -0.3031
 3676S        S10480   3.362   0.785  27.771  0.0252  0.0753  0.6025
 3677S        S10481   3.696  11.883  31.093  0.4450 -0.1760  0.5095
 3678S        S10482   8.676   9.804  12.945  0.0120 -0.4359  0.2597
 3679S        S10483   7.692   0.169  22.638 -0.1827 -0.5189 -0.4220
 3680S        S10484   7.313   6.952  28.071 -0.2901 -0.5371  0.9593
 3681S        S10485   8.697   5.181  15.264 -0.2051  0.1393 -0.0703
 3682S        S10486   6.237   4.187  24.700 -0.1531 -0.5567  0.4050
 3683S        S10487   6.095  11.606  22.239  0.5071  0.4377 -0.6461
 3684S        S10488   6.927   6.911  30.097 -0.6711 -0.4108 -0.1873
 3685S        S10489   9.317   3.167  11.187 -0.6207 -0.0012  0.2077
 3686S        S10490   7.932   4.411   8.755  0.2058 -0.0058  0.3086
 3687S        S10491   0.635   9.966  23.909 -0.3168 -0.0910  0.1053
 3688S        S10492   5.067   8.557  17.521  0.3029  0.3622  0.2234
 3689S        S10493   7.392   9.985  16.002 -0.0118  0.2339  0.0108
 3690S        S10494   7.496   1.029  19.644 -0.3236  0.1581  0.7627
 3691S        S10495   0.499   7.578  21.465 -0.1466  0.0021  0.0587
 3692S        S10496   7.021   7.652  20.805  0.0057  0.4299  0.3901
 3693S        S10497   9.405  12.087  31.061  0.0563 -0.4271  0.3788
 3694S        S10498  12.195  11.810  26.716 -0.2405 -0.0052 -0.1275
 3695S        S10499   7.110   2.877  12.302 -0.2120 -0.1307 -0.6100
 3696S        S10500   0.457   3.780  26.139 -0.1266  0.4999 -0.0284
 3697S        S10501  10.985   9.199  29.644 -0.5493 -0.0286  0.2459
 3698S        S10502   4.787   2.435  16.469 -0.1563 -0.4088 -0.0355
 3699S        S10503   4.523   6.517  11.920  0.2513  0.2276  0.1385
 3700S        S10504   2.892   1.120  31.711  0.1328 -0.0781  0.3460
 3701S        S10505   1.909   5.370  14.281  0.6447 -0.2729 -0.6647
 3702S        S10506   7.951   3.975  29.951 -0.3764  0.8003  0.1525
 3703S        S10507   1.067   7.217  18.577 -0.3757 -0.2807 -0.2584
 3704S        S10508   4.386   8.248  18.157  0.4414  0.2858  0.1163
 3705S        S10509   4.461   0.366  22.975  0.6525 -0.2535 -0.4996
 3706S        S10510  10.186   3.135  11.398 -0.4911  0.9153  0.5805
 3707S        S10511   5.851  10.056  10.035 -0.0828  0.3123  0.2518
 3708S        S10512   8.738  11.391  20.492  1.0716  0.1397 -0.4158
 3709S        S10513   3.258   4.475  22.099  0.4075  0.4548 -0.3770
 3710S        S10514  12.115   2.536  12.595 -0.0248  0.2350  0.1455
 3711S        S10515   9.816   0.177  20.669  0.4750  0.4437  0.0616
 3712S        S10516  12.125   3.165  26.207 -0.4707 -0.2935 -0.1392
 3713S        S10517   3.616   8.720  28.646 -0.0778  0.3616 -0.1732
 3714S        S10518   6.783   5.095  29.465 -0.6035  0.3235  0.5451
 3715S        S10519   9.915   4.756  17.530  0.4332  0.7327 -0.3237
 3716S        S10520   6.138   1.370  32.001  0.2093 -0.0756 -0.3143
 3717S        S10521   4.136   0.801   5.722 -0.2100  0.6000  0.1903
 3718S        S10522   7.518   8.986  27.499  0.4488 -0.3307  0.2228
 3719S        S10523   6.965   8.848  22.632 -0.0282 -0.2421 -0.0998
 3720S        S10524   1.641   3.114  24.812 -0.0542  0.2395 -0.2144
 3721S        S10525   4.630   0.582  32.409 -0.0808  0.2581 -0.2402
 3722S        S10526   6.575   6.498  28.770 -0.6183  0.2896  0.2416
 3723S        S10527   6.840   3.311  14.876  0.3962  0.1866 -0.2695
 3724S        S10528   2.945   0.821  18.436  0.3464  0.1593  0.0799
 3725S        S10529   6.252   2.877  23.241 -0.3532  0.1306 -0.5320
 3726S        S10530   5.578   6.531  18.032  0.3131 -0.0780  0.0668
 3727S        S10531   5.906  11.333  11.442  0.6220 -0.0952 -0.2796
 3728S        S10532   6.755   3.856  12.204  0.1955  0.2529  0.0452
 3729S        S10533   0.077  10.809  20.578 -0.6034 -0.2615 -0.7330
 3730S        S10534   2.275   1.858  19.070  0.1142 -0.1458 -0.2309
 3731S        S10535  10.608  10.234  20.914  0.1169  0.3138 -0.1359
 3732S        S10536   2.009   8.738  17.714 -0.2055  0.1825 -0.2885
 3733S        S10537  10.625   5.947  18.582 -0.5272 -0.2981 -0.0899
 3734S        S10538   3.506   0.807  13.187  0.3575 -0.0028 -0.0249
 3735S        S10539   2.399   1.766  12.254  0.1716 -0.0759  0.2272
 3736S        S10540   2.240   8.590  28.900 -0.9307 -0.0113 -0.0653
 3737S        S10541   5.047   1.498  24.810 -0.1036 -0.1264  0.0068
 3738S        S10542   0.904  11.747  24.908 -0.1450 -0.0880 -0.2140
 3739S        S10543   6.442   5.173  22.741  0.5741  0.0684  0.2354
 3740S        S10544   5.643   1.538  14.412 -0.5774 -0.4630  0.2209
 3741S        S10545   5.799  10.767  22.644  0.1500  0.2446 -0.0275
 3742S        S10546   8.637   0.795  23.612 -0.1579 -0.3578  0.1445
 3743S        S10547   4.210   0.215  26.494  0.0573  0.0359  0.1428
 3744S        S10548  12.237   0.342  14.393 -0.1809  0.3658 -0.3649
 3745S        S10549   5.908  12.132  13.190  0.3830 -0.0309 -0.1157
 3746S        S10550   1.793  12.287  11.268 -0.4209  0.5533  0.3933
 3747S        S10551   2.039   6.699  17.690  0.4604  0.0189  0.4074
 3748S        S10552  10.763   6.492  29.386 -0.2913 -0.4587 -0.3735
 3749S        S10553   5.690   1.814  28.879  0.1300  0.1726  0.1813
 3750S        S10554  11.606   9.004  13.694  0.2537  0.0566  0.0743
 3751S        S10555   4.724   3.768  19.218  0.1169 -0.2177  0.4383
 3752S        S10556  11.803  10.261  11.603  0.0377  0.0896 -0.6396
 3753S        S10557   8.032   2.106   9.645 -0.1653  0.2578 -0.3438
 3754S        S10558  12.324   2.038  18.277  0.0026 -0.0704  0.0595
 3755S        S10559   1.839  11.664   0.393  0.2024 -0.0357  0.2389
 3756S        S10560   0.068  11.077  16.237  0.2544 -0.0471 -0.0979
 3757S        S10561  11.368   0.744  28.066 -0.2759  0.6490 -0.2356
 3758S        S10562   9.356   1.914  26.020 -0.0797  0.4177 -0.7456
 3759S        S10563   0.106  11.614  17.607  0.4259 -0.3074  0.2460
 3760S        S10564   1.890  12.334  17.176 -0.0704  0.2057 -0.2448
 3761S        S10565   9.347   0.754  28.777  0.9958  0.3045  0.0154
 3762S        S10566   6.823   0.646  31.157  0.3822 -0.1559 -0.0817
 3763S        S10567   3.436   0.481  15.625  0.2437 -0.1114 -0.6462
 3764S        S10568   5.024  11.122  12.631 -0.0586  0.0606 -0.1961
 3765S        S10569   2.415   0.002  20.358  0.1257 -0.0654  0.1924
 3766S        S10570  10.283   1.968  14.671  0.5840  0.8328  0.1525
 3767S        S10571   8.069   7.044  26.313 -0.2030 -0.1289 -0.6244
 3768S        S10572   1.782   0.682  13.023  0.1067  0.6611  0.0427
 3769S        S10573   4.253   6.345   6.191 -0.2017 -0.2746 -0.0788
 3770S        S10574   3.094   8.342  27.372  0.0839  0.3707 -0.0993
 3771S        S10575  11.046   4.993  20.122  0.2356 -0.4773 -0.2024
 3772S        S10576   9.488   7.586  26.202  0.4794  0.0978  0.2335
 3773S        S10577  11.655   7.137  21.773 -0.0438  0.1524 -0.4335
 3774S        S10578   9.209   5.915  28.766 -0.0970  0.4371  0.0941
 3775S        S10579   6.609   4.447  20.826 -0.4074  0.3959 -0.5282
 3776S        S10580   0.712  10.093  16.208  0.0248 -0.2759 -0.3234
 3777S        S10581   5.199   7.126  12.093 -0.1825  0.0408 -0.2237
 3778S        S10582  11.675   1.942  20.764  0.1828 -0.3074  0.5730
 3779S        S10583   8.128   9.998  16.463 -0.3185 -0.1004 -0.3168
 3780S        S10584   1.017   4.323  27.766 -0.0861 -0.0913 -0.4059
 3781S        S10585   0.795   6.981  18.167  0.4082  0.0073 -0.0051
 3782S        S10586   1.751  11.230  25.484 -0.0886  0.0569 -0.5835
 3783S        S10587   6.412   8.590  20.520  0.0893 -0.2128 -0.1282
 3784S        S10588   4.971   4.806  14.756 -0.1829 -0.2186  0.0198
 3785S        S10589   0.426   8.895  12.315  0.1463 -0.2875 -0.3307
 3786S        S10590   9.379   8.873  33.302  0.0759  0.0180 -0.6626
 3787S        S10591   9.580   1.418  11.530  0.3116  0.0758  0.3292
 3788S        S10592  10.442   7.590  14.027  0.2168  0.1598 -0.7122
 3789S        S10593   6.866   6.610  21.747  0.3691 -0.2624 -0.2469
 3790S        S10594   3.797   0.593  11.224  0.3507 -0.4853  0.4086
 3791S        S10595   0.229   0.129  21.549  0.0205  0.0880  0.1340
 3792S        S10596   5.833   8.804  21.762  0.4147 -0.1496  0.3048
 3793S        S10597   9.219   9.439  22.996  0.1768  0.1354 -0.1134
 3794S        S10598   8.931  11.721  27.773 -0.4074 -0.0861  0.6667
 3795S        S10599   4.749   5.682  30.434  0.0953  0.4984 -0.2820
 3796S        S10600   1.576   8.957  15.493  0.2231 -0.0042 -0.4319
 3797S        S10601  11.811  10.932  14.603  0.0819 -0.2272  0.3129
 3798S        S10602   7.986   8.291  11.162  0.5496 -0.2880  0.1963
 3799S        S10603   2.154   6.823  13.735  0.4784  0.3474 -0.2178
 3800S        S10604   1.163   0.380  20.606  0.2406  0.0421 -0.1251
 3801S        S10605  12.103   9.547  15.808 -0.5363  0.4937  0.1930
 3802S        S10606   5.438  12.064  22.600  0.1160  0.3131  0.0260
 3803S        S10607   2.488   5.704  18.381  0.0107 -0.1001  0.2894
 3804S        S10608   7.743  10.218  17.226  0.2888  0.1038  0.1859
 3805S        S10609   8.518   8.377  26.989 -0.6344  0.6180 -0.2417
 3806S        S10610   7.764   5.775  16.649 -0.2211 -0.1039  0.0013
 3807S        S10611   1.817   7.024  21.863 -0.0698 -0.3596 -0.4219
 3808S        S10612   6.932   8.401  22.434  0.4088  0.0563 -0.2179
 3809S        S10613   8.407   1.796  18.115 -0.3300 -0.0271  0.0194
 3810S        S10614   3.193   5.029  19.247  0.1025 -0.4861  0.1539
 3811S        S10615   9.705   2.122  32.526  0.0742  0.0014  0.1050
 3812S        S10616   2.241   3.052  11.814 -0.0418  0.3099 -0.4955
 3813S        S10617   0.616   2.879  31.312  0.2781 -0.3500  0.2444
 3814S        S10618  11.908   9.889  11.880 -0.3121 -0.0240 -0.2016
 3815S        S10619   1.902   3.110  30.732  0.0507 -0.1254 -0.3048
 3816S        S10620   9.391   8.614  32.391 -0.5337  0.4127 -0.2942
 3817S        S10621  12.191   1.577  35.685  0.1927 -0.2452 -0.3192
 3818S        S10622   6.399   4.262  22.835  0.3573  0.0753  0.1791
 3819S        S10623   9.186   6.792  23.497 -0.0252  0.2728 -0.2696
 3820S        S10624   1.455   6.393  14.573 -0.1241  0.0495 -0.2174
 3821S        S10625   2.732  11.375  22.888  0.5129 -0.4653  0.3668
 3822S        S10626   3.179   3.018  16.097 -0.3652  0.0698 -0.1467
 3823S        S10627   6.819  10.151  17.777  0.2958 -0.2664 -0.0086
 3824S        S10628   1.768   8.071  28.167 -0.7294 -0.4035 -0.5897
 3825S        S10629   3.100  11.212  19.023 -0.0480  0.3520 -0.2875
 3826S        S10630   8.919   2.112  13.558  0.0270 -0.2501  0.1115
 3827S        S10631   3.211   2.254  13.043  0.0187  0.1935 -0.6152
 3828S        S10632  11.736   5.600  18.312  0.4762 -0.1774 -0.5676
 3829S        S10633   3.297   8.383  24.873 -0.2351  0.3738  0.1523
 3830S        S10634   0.288   6.573  16.005  0.0253  0.2715  0.0430
 3831S        S10635   9.834   5.820  26.398 -0.0270  0.1692 -0.2519
 3832S        S10636   4.127   3.542  22.114 -0.2250  0.1395 -0.1240
 3833S        S10637   0.506   1.012  25.213 -0.5302  0.1844 -0.2778
 3834S        S10638   1.344   9.596  20.477  0.2963 -0.1717  0.5278
 3835S        S10639   2.305   3.216  24.948 -0.2111  0.3997  0.1134
 3836S        S10640  11.691  11.442  25.959  0.1807  0.0848 -0.0641
 3837S        S10641   1.943   0.068  15.938 -0.7745 -0.0154  0.1087
 3838S        S10642   6.296   3.233  28.111 -0.7337 -0.1129 -0.5293
 3839S        S10643   9.654   0.692  21.381 -0.4832 -0.2166  0.3177
 3840S        S10644   8.654   4.065  20.627  0.0530 -0.3763 -0.0203
 3841S        S10645   4.023   7.661   9.332  0.1437  0.0389  0.1748
 3842S        S10646   5.140   9.222  30.941  0.7552  0.1636  0.2757
 3843S        S10647   2.934   5.708  13.075 -0.1036  0.3771 -0.8433
 3844S        S10648   2.271   0.016  26.756 -0.2187 -0.3573 -0.0292
 3845S        S10649  10.301  11.884  27.536 -0.1973  0.3313 -0.2590
 3846S        S10650   1.680   8.403  13.563 -0.2594  0.2454  0.1756
 3847S        S10651   7.920   8.678  13.222 -0.3253  0.0546  0.5452
 3848S        S10652   9.685   5.023  17.108 -0.1159  0.5242 -0.3759
 3849S        S10653   8.993   8.936  21.452 -0.1518 -0.0080  0.0974
 3850S        S10654  11.906   3.344  30.629  0.2006  0.4218  0.0525
 3851S        S10655   4.933   3.353  23.596  0.1409 -0.2588 -0.0462
 3852S        S10656  10.446  12.123  19.782 -0.1345  0.3086  0.0123
 3853S        S10657   6.836  12.039  23.539  0.4942  0.0645 -0.0893
 3854S        S10658   6.552   7.668  12.073  0.3944 -0.5398 -0.1103
 3855S        S10659   5.247   5.910  18.087 -0.1071  0.0793 -0.0703
 3856S        S10660   9.640   6.347  22.748 -0.0428  0.0746 -0.0590
 3857S        S10661  10.541   8.179  31.318 -0.1791  0.7181  0.3108
 3858S        S10662   4.922  10.337  25.761  0.4903  0.0777  0.8470
 3859S        S10663   6.770   1.300  24.061 -0.3046  0.1551 -0.6604
 3860S        S10664   8.582  10.412  19.381  0.4775 -0.1739  0.0818
 3861S        S10665   5.932   9.837  28.776 -0.5419 -0.1189 -0.1528
 3862S        S10666   2.564   3.120  40.755  0.5391  0.0415  0.1783
 3863S        S10667   6.741   4.304  13.621 -0.0446 -0.0160 -0.1722
 3864S        S10668   2.448  10.389  24.222 -0.1769 -0.0851 -0.1458
 3865S        S10669   9.113   2.060  27.757  0.2385  0.2885 -0.2851
 3866S        S10670   7.380   1.462  13.086  0.0403 -0.0234 -0.0472
 3867S        S10671   9.978   9.558  11.381  0.4172  0.2223  0.5260
 3868S        S10672   6.681   2.919  30.197  0.1196  0.0507 -0.2765
 3869S        S10673  11.916   0.624  19.773  0.3818 -0.6931 -0.1667
 3870S        S10674   4.826   1.425  27.183  0.3414 -0.0387  0.0107
 3871S        S10675   7.206   3.276  16.752 -0.5749 -0.0110 -0.0712
 3872S        S10676   8.636   9.013  26.216 -0.2673 -0.2551  0.2636
 3873S        S10677   7.154   3.052  19.949 -0.6841  0.2298  0.0458
 3874S        S10678   5.636   6.509  21.328 -0.1903 -0.2665  0.1540
 3875S        S10679   7.668  10.492  28.912  0.3259 -0.1701 -0.1106
 3876S        S10680   3.816   9.083  20.175  0.1380 -0.2328 -0.5524
 3877S        S10681   0.672   0.148  27.979  0.1686  0.4227 -0.0629
 3878S        S10682   0.912   0.107  19.743 -0.4124  0.1692 -0.5228
 3879S        S10683   2.686   2.027  12.968  0.1434  0.0421  0.6426
 3880S        S10684   0.937   7.033  15.537  0.1839 -0.5542 -0.1205
 3881S        S10685   2.113   7.167  22.512  0.0224  0.1120 -0.1948
 3882S        S10686  11.087   7.338  29.876 -0.1806 -0.3771  0.4138
 3883S        S10687   8.388   4.882  12.512  0.3423 -0.1086 -0.4436
 3884S        S10688  11.009   1.038  14.774  0.3654  0.1439  0.1174
 3885S        S10689   8.274   7.677  13.275  0.2557 -0.0289  0.1374
 3886S        S10690   3.957  10.956  28.751  0.0353 -0.5573  0.4626
 3887S        S10691  10.990   8.257  29.843  0.3878 -0.5501  0.3801
 3888S        S10692   4.828   5.537  25.894  0.2936 -0.2494 -0.1445
 3889S        S10693  12.177   8.377  15.032  0.0438 -0.3657 -0.2268
 3890S        S10694   5.465   9.562  31.661  0.5034  0.5617 -0.0532
 3891S        S10695   0.934   9.018  15.534  0.1224  0.1057 -0.3158
 3892S        S10696  12.311  10.364  21.519  0.3304 -0.0405  0.0001
 3893S        S10697   1.227   3.300  25.481 -0.1919 -0.1695 -0.2984
 3894S        S10698   3.321   9.536  14.077 -0.2443 -0.0459 -0.4135
 3895S        S10699   5.482  10.915  21.640  0.4568 -0.4700 -0.4518
 3896S        S10700   2.302   3.145  17.287 -0.0325  0.7110  0.2732
 3897S        S10701   8.466   0.007  15.618 -0.2406 -0.2209  0.2524
 3898S        S10702   5.243   2.230  25.670 -0.1744  0.1131  0.3524
 3899S        S10703   7.475   9.033  18.848 -0.2244 -0.2158  0.4321
 3900S        S10704   8.682   0.137  14.688 -0.3789  0.1141 -0.1141
 3901S        S10705   5.811  11.230  18.758  0.2520 -0.3361  0.0495
 3902S        S10706  11.804  11.930  16.547 -0.6675 -0.1565  0.0949
 3903S        S10707   3.291   8.195  20.541  0.1865  0.1303  0.1302
 3904S        S10708   7.834   4.632  23.411 -0.1741 -0.2247  0.7893
 3905S        S10709   3.564   2.648  12.819  0.1106 -0.2374 -0.2117
 3906S        S10710   0.115   7.389  23.419 -0.0851  0.6355  0.5554
 3907S        S10711   6.552  11.927  16.275 -0.4554  0.4374 -0.1593
 3908S        S10712   0.050   0.410  31.160 -0.3015  0.1060 -0.0586
 3909S        S10713   9.402   5.991  24.244  0.3712 -0.3257  0.3811
 3910S        S10714  11.302   8.299  13.731 -0.2046  0.1422 -0.1103
 3911S        S10715   7.470   2.730  10.610 -0.6183  0.2562  0.4608
 3912S        S10716   4.877   7.925  30.946  0.2875 -0.0528 -0.5144
 3913S        S10717   1.625   6.773  11.061 -0.1190 -0.0139 -0.0434
 3914S        S10718   6.009   3.810  21.923  0.4427 -0.6284 -0.1403
 3915S        S10719   4.078   2.621  22.515 -0.1085  0.2153  0.3272
 3916S        S10720   0.636   2.038  16.521 -0.2572  0.0696 -0.2177
 3917S        S10721   0.997   2.309  15.773 -0.1314 -0.5481  0.0372
 3918S        S10722   9.335   3.652  24.438  0.2783  0.4263 -0.3448
 3919S        S10723   5.142   0.756  22.110 -0.7594 -0.1530  0.1133
 3920S        S10724   4.732  11.828  11.199 -0.3144  0.1468 -0.2203
 3921S        S10725   3.862  10.037  31.993  0.7525  0.3937  0.0235
 3922S        S10726   1.789   4.969  12.438  0.2914 -0.3298 -0.1325
 3923S        S10727   4.070   1.099  15.378 -0.0607  0.1724  0.1152
 3924S        S10728  10.936   1.643  27.841  0.0304  0.0677  0.1232
 3925S        S10729   0.891   2.023  29.984  0.0640  0.3011 -0.7616
 3926S        S10730   1.087  11.978  17.242  0.3670  0.0578 -0.3623
 3927S        S10731  10.450  11.918  25.241  0.7214 -0.7378  0.3910
 3928S        S10732  11.746   6.902  15.249 -0.4943  0.1267  0.1095
 3929S        S10733  10.575   5.943  11.857  0.1673 -0.2631  0.1216
 3930S        S10734   6.248   8.195  26.887 -0.7109  0.1914 -0.1465
 3931S        S10735   4.783   4.359  17.372  0.5220  0.1265  0.0861
 3932S        S10736   7.994   7.110  20.549  0.1324 -0.4626 -0.2124
 3933S        S10737   8.996   6.347  16.012 -0.3978 -0.0058  0.0381
 3934S        S10738   8.081   4.877  25.730 -0.2135  0.4997  0.3288
 3935S        S10739  10.221   9.862  48.593 -0.1861  0.0315  0.2761
 3936S        S10740   5.649   6.161  22.412  0.0847  0.5567 -0.7228
 3937S        S10741   2.018   0.411  27.502  0.0157  0.7700 -0.0125
 3938S        S10742   6.601   4.637  45.310  0.2731 -0.5373 -0.2540
 3939S        S10743   6.466   7.782  17.631 -0.8408  0.5192  0.3988
 3940S        S10744   1.930   0.092  24.524 -0.1651 -0.4846  0.1140
 3941S        S10745   4.851  11.665  12.041  0.4051  0.0925 -0.0276
 3942S        S10746   7.721   7.541  27.033  0.7026 -0.6945 -0.1366
 3943S        S10747   1.292   9.729  31.018 -0.0759  0.1495 -0.1719
 3944S        S10748   1.299   6.177  31.889 -0.0289 -1.2231 -0.0278
 3945S        S10749   0.488   4.241  15.106  0.0083  0.0388  0.3352
 3946S        S10750   5.982   3.490  25.267  0.1109 -0.5569 -0.0992
 3947S        S10751   9.521  11.517  23.922  0.6126 -0.2663  0.6880
 3948S        S10752   0.960   8.355  23.586 -0.6321  0.2352 -0.0244
 3949S        S10753   5.259   4.519  16.181  0.1955 -0.2028 -0.2307
 3950S        S10754   9.051   4.468  19.569 -0.5446  0.1816  0.0211
 3951S        S10755   7.668   9.416  12.052 -0.2602  0.4516  0.5023
 3952S        S10756   3.194   9.451  29.253 -0.2774  0.8275  0.1654
 3953S        S10757   3.328  10.768  31.586  0.2250 -0.4433  0.1473
 3954S        S10758   4.021   4.443  19.183  0.0273  0.6077  0.0060
 3955S        S10759   8.928   9.256  20.290  0.7049 -0.1433  0.1835
 3956S        S10760   8.007   5.257  20.060  0.1061  0.4807 -0.4073
 3957S        S10761   0.187   8.004  14.807 -0.2771  0.0113 -0.1623
 3958S        S10762   3.268  10.562  17.605  0.2669  0.6851 -0.0974
 3959S        S10763   6.577   8.448  26.450 -0.3271  0.4092 -0.1090
 3960S        S10764   9.621  11.067  30.679 -0.6310 -0.0103 -0.1082
 3961S        S10765  11.574   9.449  15.716  0.6254 -0.2498  0.6861
 3962S        S10766   8.695   7.195  29.161 -0.0317  0.5996  0.0230
 3963S        S10767   7.940   7.575  20.886 -0.1300 -0.0243  0.3899
 3964S        S10768   0.209   5.131  28.803  0.0855 -0.5139  0.3360
 3965S        S10769   8.635  10.728  14.810  0.2453  0.4764 -0.2439
 3966S        S10770  10.236   5.260  24.356  0.2931 -0.1084 -0.5162
 3967S        S10771   5.164   9.367  17.618 -0.1427 -0.5116 -0.0097
 3968S        S10772   5.671   4.034  12.636  0.1840 -0.4991  0.1288
 3969S        S10773   0.935   6.373  16.192 -0.0858  0.2421 -0.4074
 3970S        S10774  10.905   1.201  24.342 -0.1331  0.4474  0.1151
 3971S        S10775   2.518  12.011  29.069  0.5359 -0.0077 -0.1071
 3972S        S10776  12.339   0.948  19.976  0.7998  0.4477  0.0313
 3973S        S10777   3.065   8.048  18.579  0.0999 -0.0221  0.0996
 3974S        S10778  11.331   5.929  36.611  0.6280 -0.0530  0.2359
 3975S        S10779   9.314   4.684  11.440  0.0357 -0.2633  0.0925
 3976S        S10780   9.816   7.986  29.871 -0.2867  0.3651  0.1446
 3977S        S10781   4.515   6.982  28.056  0.3266  0.3342  0.1121
 3978S        S10782   5.443   9.514   9.356 -0.1210  0.2520  0.0419
 3979S        S10783   8.923  10.657  13.671 -0.2943  0.0401 -0.2133
 3980S        S10784   6.795   5.684  13.059  0.0327 -0.0020 -0.4440
 3981S        S10785   9.846   1.762  23.025 -0.1131 -0.3508  0.6596
 3982S        S10786   0.370   1.142  26.128 -0.6165 -0.2392 -0.2078
 3983S        S10787   9.257   5.309  29.489  0.0451 -0.2345  0.1606
 3984S        S10788  10.925   3.721  23.351 -0.1786  0.2686  0.1241
 3985S        S10789   7.000   1.701  22.643 -0.3324  0.5043  0.0615
 3986S        S10790   3.598   0.933  28.269  0.1246  0.0146 -0.0482
 3987S        S10791   4.389   0.639  35.837  0.1308  0.1211  0.6673
 3988S        S10792   7.305   4.712  45.318 -0.4530 -0.2714  0.1759
 3989S        S10793   9.881   9.869  27.182  0.1963  0.4888 -0.4510
 3990S        S10794   4.495   5.605  21.076  0.3812  0.1861 -0.1436
 3991S        S10795   4.680   1.408  22.935 -0.2773  0.0186  0.0766
 3992S        S10796   8.061   2.697  25.282  0.1940  0.4727 -0.1691
 3993S        S10797   6.801   0.092  15.351  0.0239  0.5304 -0.2300
 3994S        S10798   1.364   7.258  25.956  0.3978 -0.4956 -0.1745
 3995S        S10799   3.679   5.547  17.571 -0.1109 -0.0432 -0.1990
 3996S        S10800   4.661   4.317  23.957  0.2713  0.4564  0.3436
 3997S        S10801   7.816   9.017  30.368 -0.1151  0.0120  0.4094
 3998S        S10802   5.392  10.645  13.825  0.3029  0.6188  0.0550
 3999S        S10803   5.143   6.832  13.289 -0.0182  0.1255  0.3033
 4000S        S10804   6.711  11.449  13.233  0.1241  0.0922  0.1384
 4001S        S10805   2.981  12.241  28.879 -0.7230  0.4259 -0.2432
 4002S        S10806   2.685   6.411  22.609 -0.0006  0.2417  0.0478
 4003S        S10807   2.398   9.131  28.549 -0.5542  0.1618  0.3948
 4004S        S10808   0.413   9.339  20.116  0.1109  0.6978 -0.0505
 4005S        S10809   0.926   2.033  20.238  0.2883  0.0606  0.6342
 4006S        S10810  10.662   6.675  21.941 -0.2932  0.5122 -0.0664
 4007S        S10811   3.346  10.745  14.695 -0.3697 -0.4896  0.2925
 4008S        S10812   4.590   0.661  21.359 -0.1901  0.0992  0.0025
 4009S        S10813  11.079  11.897  17.223  0.2787  0.1392  0.2199
 4010S        S10814  12.013   2.630  21.050  0.0760 -0.2608 -0.1243
 4011S        S10815   3.176  11.133  17.431 -0.1433  0.1385 -0.0107
 4012S        S10816   7.203  10.000  10.893  0.8849  0.1241 -0.1248
 4013S        S10817   4.600   2.938  22.433  0.2637 -0.1414 -0.0686
 4014S        S10818   1.125   3.953  20.369 -0.2262  0.5976  0.1750
 4015S        S10819   3.998   1.865  19.363 -0.1729  0.1960 -0.0597
 4016S        S10820   4.055  10.750  17.146  0.1696  0.0405  0.3683
 4017S        S10821   6.714  11.376  30.852  0.2510 -0.0210 -0.3132
 4018S        S10822   7.247  10.657  19.646 -0.2667 -0.3266  0.0417
 4019S        S10823   8.229   5.484  23.646 -0.4217 -0.3943 -0.3800
 4020S        S10824   8.940  10.920  18.042  0.2168 -0.0607  0.3591
 4021S        S10825   9.095   3.684  28.930  0.2849 -0.4473  0.0736
 4022S        S10826   0.877   8.575  29.848 -0.4211 -0.1852 -0.1297
 4023S        S10827  10.924   3.406  26.154  0.4981  0.2387  0.4839
 4024S        S10828   1.993   5.470  24.630 -0.1436 -0.4720  0.5590
 4025S        S10829   7.804   5.513  22.372  0.6180  0.3354  0.2168
 4026S        S10830   5.329  10.941  18.398 -0.6014 -0.3114 -0.3384
 4027S        S10831  12.159   9.648  27.878  0.5127 -0.3706 -0.4800
 4028S        S10832  10.704   8.955  19.706 -0.2535 -0.1974  0.0520
 4029S        S10833   3.632   1.070  23.987  0.6240 -0.2202  0.4062
 4030S        S10834   2.419   7.425  20.988 -0.0749  0.0501 -0.8058
 4031S        S10835   2.677   1.497  19.167  0.2693  0.3962 -0.1228
 4032S        S10836   8.674   7.655  12.465 -0.6239 -0.1474  0.0754
 4033S        S10837  11.072   5.752  29.433  0.3507  0.1669 -0.1600
 4034S        S10838  11.845   2.292  26.029 -0.2528  0.1823 -0.0905
 4035S        S10839   2.181   5.968  24.664 -0.3944 -0.3165 -0.3740
 4036S        S10840   3.655   2.033  21.934 -0.5467  0.1922 -0.5444
 4037S        S10841   9.032   6.133  25.040  0.0061  0.0554 -0.1824
 4038S        S10842   4.875   4.615  26.724 -0.4745 -0.2945  0.2130
 4039S        S10843   9.719   3.843  31.240  0.0501  0.2374 -0.3119
 4040S        S10844   8.266   3.998  12.033  0.3502 -0.3892  0.1931
 4041S        S10845   7.174  11.624  15.402  0.7376  0.0095 -0.5556
 4042S        S10846   5.751   0.044  30.208 -0.4660  0.3095 -0.4559
 4043S        S10847   2.244   5.464  16.152 -0.1727 -0.0955 -0.2214
 4044S        S10848   4.018   6.925  10.303  0.4233  0.3257 -0.2917
 4045S        S10849   3.695   2.968  15.896  0.0627  0.1457  0.4204
 4046S        S10850  11.865   6.303  25.788  0.4079 -0.0378  0.2415
 4047S        S10851   5.447   3.272  45.074 -0.2119 -0.2654 -0.2734
 4048S        S10852   6.838   4.248  25.866 -0.0695 -0.3030  0.0690
 4049S        S10853  12.209   7.169  25.644 -0.5876  0.3817  0.0875
 4050S        S10854   7.620  11.481  13.525 -0.4646 -0.3477 -0.0153
 4051S        S10855   9.120  11.282  17.746  0.1589  0.2280 -0.3211
 4052S        S10856   2.407   0.296  29.895  0.4126 -0.2347  0.4199
 4053S        S10857   7.999   6.779  40.351 -0.0092  0.1386  0.1251
 4054S        S10858   3.512   7.268  27.679  0.0291 -0.1711  0.6697
 4055S        S10859   6.630   7.898  30.647 -0.4884  0.6311  0.3713
 4056S        S10860   5.613   7.133  22.151  0.0801  0.4125 -0.2041
 4057S        S10861   5.358   8.330  12.788  0.1342  0.0040  0.2177
 4058S        S10862  12.257   5.944  21.921  0.0538  0.0046 -0.4163
 4059S        S10863   2.127   7.832  13.897 -0.2245 -0.0100 -0.6328
 4060S        S10864   8.242   7.280  15.404  0.0157 -0.2631 -0.3918
 4061S        S10865  10.962   4.457  26.180  0.1789  0.1856 -0.3161
 4062S        S10866   8.069   3.843  17.517 -0.1808 -0.4593 -0.0075
 4063S        S10867  11.398  10.755  20.334  0.2263 -0.0843  0.4792
 4064S        S10868   7.859   7.873  12.541  0.3749  0.1574 -0.3704
 4065S        S10869   7.749   8.989  16.057  0.1901  0.2433 -0.1847
 4066S        S10870   3.732   7.682  30.894 -0.0452 -0.1246 -0.3623
 4067S        S10871   7.455   7.455  22.812 -0.0676 -0.2046  0.0003
 4068S        S10872   8.415   3.016  12.304 -0.2605 -0.2497  0.1930
 4069S        S10873   7.895   0.883  33.010 -0.8341 -0.1030 -0.2418
 4070S        S10874   3.919   1.652  13.559  0.3049 -0.0197 -0.0441
 4071S        S10875   0.619   3.668  23.811  0.2013  0.1156 -0.1245
 4072S        S10876   2.303   4.935  11.722  0.6140  0.0485  0.5346
 4073S        S10877   2.276  11.450  13.464 -0.5052 -0.5673 -0.4756
 4074S        S10878   9.402   8.016  19.988  0.2536 -0.3083 -0.1155
 4075S        S10879   3.407   6.792  28.891  0.2949  0.6144 -0.2333
 4076S        S10880   0.977  11.912  20.502  0.0345 -0.2135  0.4824
 4077S        S10881   5.790   0.791  31.811 -0.0115  0.0247  0.2278
 4078S        S10882  11.218   4.558  21.592  0.4387 -0.6273 -0.1662
 4079S        S10883   5.310   5.034  17.736 -0.0239 -0.2514 -0.3194
 4080S        S10884  12.339   5.635  16.088 -0.2388  0.0536  0.4312
 4081S        S10885   0.392   2.581  14.320 -0.6602  0.1073 -0.0836
 4082S        S10886   4.267   8.178  23.391  0.3831  0.2945  0.0919
 4083S        S10887   9.224  11.223  27.944 -0.1428 -0.1789  0.0037
 4084S        S10888  10.086   1.030  19.577 -0.0890  0.2456 -0.3184
 4085S        S10889   7.309   0.134  15.052 -0.2796  0.2266  0.1384
 4086S        S10890   8.707   1.228  17.395 -0.1335 -0.3098 -0.1674
 4087S        S10891   8.095   6.283  29.007 -0.4823  0.5709  0.1587
 4088S        S10892   6.293   7.587  19.885 -0.1006  0.5916  0.1254
 4089S        S10893   6.404   9.124  11.618 -0.5569 -0.5278  0.0908
 4090S        S10894   9.513  11.082  25.969  0.3573  0.4141  0.2862
 4091S        S10895   7.615  11.806  19.163 -0.2674 -0.2186 -0.1434
 4092S        S10896   8.683   9.412  12.220 -0.1946 -0.1414  0.1986
 4093S        S10897  10.488   8.820  15.956 -0.7264  0.0167  0.3306
 4094S        S10898   6.015   9.659  18.831  0.3053 -0.2555  0.1788
 4095S        S10899  11.755  12.182  16.069  0.5814  0.2598  0.3542
 4096S        S10900   8.315   6.266  24.761  0.1389  0.6886  0.1443
 4097S        S10901   1.600  12.325  28.801  0.8335 -0.5032  0.0893
 4098S        S10902   8.386   6.098   0.339  0.3906 -0.2519  0.2226
 4099S        S10903   2.470   6.657  31.474  0.3455 -0.2272  0.1059
 4100S        S10904  12.345   1.658  28.682  0.1303 -0.2749  0.6054
 4101S        S10905  12.196   5.937  22.554 -0.1261  0.0858 -0.5075
 4102S        S10906   2.525   0.212  12.239  0.3032  0.0323 -0.0961
 4103S        S10907  11.099   1.576  18.611  0.0551 -0.0850  0.2363
 4104S        S10908  10.053   6.731  30.535  0.0955 -0.0937 -0.1691
 4105S        S10909   7.416  10.814  26.417  0.2461 -0.2328 -0.4165
 4106S        S10910   3.212   6.749  16.674 -0.2041 -0.2404 -0.1377
 4107S        S10911   8.057   9.225  29.843  0.2312 -0.0771  0.0245
 4108S        S10912  10.572   2.319  30.115 -0.6953  0.4552 -0.2290
 4109S        S10913   8.087   5.620  19.147 -0.0444 -0.1180  0.1092
 4110S        S10914   6.351   5.352  20.547 -0.2587 -0.5906 -0.0294
 4111S        S10915   6.038   2.422  21.348 -0.9284 -0.3366  0.2931
 4112S        S10916   0.588  11.817  26.579  0.2443 -0.5114  0.0420
 4113S        S10917  11.341   3.803  22.911  0.1480  0.0989 -0.2350
 4114S        S10918   7.611   0.246  31.783  0.1391  0.0620  0.1087
 4115S        S10919  10.313   8.521  11.609 -0.2660  0.1862  0.2956
 4116S        S10920   6.030   1.808  30.232  0.1807  0.4124 -0.2960
 4117S        S10921  11.664  12.049  20.762 -0.0702  0.1529 -0.2038
 4118S        S10922   9.187   7.254  28.096 -0.4195 -0.0795 -0.2515
 4119S        S10923   8.923   8.299  30.959  0.2012  0.2465 -0.4029
 4120S        S10924   4.275  10.949  14.556  0.0995 -0.2222 -0.2441
 4121S        S10925   6.495   4.921  23.555  0.2186  0.0916 -0.2997
 4122S        S10926  12.064   9.784  15.056  0.4600  0.0564 -0.2036
 4123S        S10927   3.112  11.700  14.581  0.5834 -0.5101  0.0663
 4124S        S10928   4.090   1.753  20.756  0.0955  0.2726  0.3249
 4125S        S10929  10.778   5.295  17.275  0.4985  0.1239 -0.0314
 4126S        S10930   8.299   0.726  25.173 -0.0737  0.4828  0.2741
 4127S        S10931   8.134   3.842  21.383  0.0858 -0.0645  0.2051
 4128S        S10932   9.666   2.257  27.393 -0.7975 -0.0084 -0.5853
 4129S        S10933   8.348   9.140  19.068  0.5478 -0.1716 -0.4527
 4130S        S10934   4.345   8.659   5.864 -0.0020  0.2957  0.0097
 4131S        S10935   5.932  11.416  16.557 -0.2142  0.3368 -0.1537
 4132S        S10936   2.939   1.943  14.802 -0.0480  0.0264 -0.1250
 4133S        S10937   2.157   4.476  26.315 -0.1161  0.3164  0.1266
 4134S        S10938   3.641   8.122  29.551  0.2548  0.4104  0.1153
 4135S        S10939   5.029   5.432  23.487 -0.4232 -0.3021 -0.1319
 4136S        S10940   0.458   8.756  21.683 -0.3878  0.1413  0.0121
 4137S        S10941  10.709   8.973  21.107  0.1046 -0.0032 -0.0221
 4138S        S10942   3.354  10.737  24.389 -0.5984  0.2183  0.0763
 4139S        S10943   9.431   9.336  13.561 -0.0837 -0.0437 -0.0650
 4140S        S10944   2.048   0.229  13.235  0.0298  0.2139 -0.0559
 4141S        S10945  10.390   7.120  11.731 -0.4603 -0.0955  0.5471
 4142S        S10946  11.906  10.927  25.829 -0.0692 -0.0292 -0.2326
 4143S        S10947  11.433   8.371  17.666 -0.0427  0.0529  0.1849
 4144S        S10948   5.849   2.373  16.769 -0.1025 -0.3970 -0.5857
 4145S        S10949   7.519   9.214  30.981  0.6208 -0.5470 -0.5565
 4146S        S10950   7.460   7.452  28.465 -0.0798 -0.3202  0.3911
 4147S        S10951   3.066   1.294  29.234 -0.1435 -0.3091  0.6394
 4148S        S10952   7.948   8.785  18.305  0.3337 -0.1116 -0.0732
 4149S        S10953  11.697  10.464  15.318  0.6236 -0.1939  0.0255
 4150S        S10954   9.663   6.472  12.788 -0.2583 -0.1893  0.2413
 4151S        S10955   7.872   2.355  21.144 -0.0659  0.3363  0.0555
 4152S        S10956   9.979   2.267  27.809  0.2532 -0.4766 -0.0901
 4153S        S10957   8.093   2.221  12.810  0.5478 -0.0927 -0.0644
 4154S        S10958   7.151   2.981  19.259 -0.2767 -0.1418 -0.6003
 4155S        S10959  11.497   3.889  13.915  0.0904 -0.2334  0.0166
 4156S        S10960  10.661   2.756  14.032 -0.1648  0.1366  0.2797
 4157S        S10961   8.359   8.219  17.599  0.1535 -0.0038  0.1875
 4158S        S10962   5.675   3.512  18.843  0.1744 -0.0036 -0.2740
 4159S        S10963   3.365   2.520  15.359 -0.3076 -0.1118  0.2834
 4160S        S10964   6.954   8.893  27.007 -0.8199 -0.2002  0.0311
 4161S        S10965   9.239  11.036  13.602 -0.2244  0.3842  0.0093
 4162S        S10966   0.414  11.029  20.194 -0.1198 -0.0155  0.2288
 4163S        S10967   2.377   8.337  18.061 -0.2028  0.1364  0.1918
 4164S        S10968   8.466   3.986  13.447 -0.4710  0.2195  0.2569
 4165S        S10969  10.347  11.512  21.599  0.5178 -0.7767  0.7590
 4166S        S10970  11.707   7.204  19.730 -0.1149 -0.2460  0.0858
 4167S        S10971   4.353   1.067  19.896  0.3629 -0.7792 -0.1436
 4168S        S10972   8.079  10.989  17.570  0.2990 -0.6066 -0.8141
 4169S        S10973   2.313   6.806  16.115  0.1716  0.9686 -0.3216
 4170S        S10974   0.330   8.759  14.228  0.2949 -0.2959 -0.1611
 4171S        S10975   7.616  10.236  29.337 -0.1401 -0.2064 -0.1776
 4172S        S10976   2.995   5.013  16.908 -0.1511 -0.2822  0.2376
 4173S        S10977   9.303   3.773  30.682 -0.1423 -0.1503  0.2383
 4174S        S10978  11.259   5.180  12.351  0.0957  0.2177  0.2777
 4175S        S10979   9.696  11.290  24.912 -0.0968  0.3306 -0.5313
 4176S        S10980  10.908   0.617   0.760  0.0054 -0.3960  0.1102
 4177S        S10981   9.392   1.250  30.353  0.7402  0.1742 -0.0181
 4178S        S10982   9.973  10.860  14.678  0.7008 -0.3988 -0.2810
 4179S        S10983   8.008   6.386  17.955 -0.1355  0.0646  0.2501
 4180S        S10984   7.607  11.348  11.803 -0.8439 -0.1101 -0.3960
 4181S        S10985   3.148   4.442  16.868  0.1894  0.3053  0.5648
 4182S        S10986   3.856   4.064  33.127 -0.0776  0.1702 -0.2505
 4183S        S10987   4.666  11.716  13.319  0.2433 -0.0858 -0.4691
 4184S        S10988   3.635  11.176  27.784  0.0570  0.1322 -0.0244
 4185S        S10989  11.633   6.350  20.242 -0.3159  0.1656  0.1298
 4186S        S10990   5.430   0.988  14.047 -0.1231  0.7275 -0.1180
 4187S        S10991   8.600   5.789  24.846 -0.4235 -0.5606  0.4396
 4188S        S10992  10.304   7.019  20.325  0.0139 -0.2332  0.1793
 4189S        S10993   0.995   2.508  24.236 -0.2334  0.6047  0.0896
 4190S        S10994   1.780   1.788  22.403 -0.0465 -0.0690 -0.3878
 4191S        S10995   9.783   0.291  32.602 -0.4148 -0.0880  0.1018
 4192S        S10996   0.791  10.340  29.998 -0.3755 -0.3448 -0.2477
 4193S        S10997  11.370   5.026  20.638  0.1532 -0.3640 -0.2090
 4194S        S10998   7.146  12.028  27.570  0.3168  0.5355 -0.1448
 4195S        S10999   7.643  10.200  14.007  0.3383 -0.2518 -0.2462
 4196S        S11000   5.258  10.104  13.892 -0.1512 -0.1967  0.2517
 4197S        S11001   9.728   9.271  20.829  0.0995  0.1701 -0.4043
 4198S        S11002   0.992   3.659  23.333  0.4422 -0.3657 -0.5566
 4199S        S11003   6.966   4.993  31.366 -0.6475 -0.2391  0.3972
 4200S        S11004   3.904   8.516  44.554 -0.5223 -0.1074  0.5237
 4201S        S11005   1.186   9.464  28.937  0.0438 -0.3906 -0.7666
 4202S        S11006   8.921   1.314  25.183  0.1899 -0.2106  0.2058
 4203S        S11007   8.817   6.223  24.549  0.3202 -0.2731 -0.4288
 4204S        S11008   9.568   1.824  26.998 -0.0855 -0.0775 -1.0710
 4205S        S11009   8.160   0.627  15.835 -0.3938  0.1566 -0.1465
 4206S        S11010  10.599   3.681  16.220  0.3966  0.1303  0.2854
 4207S        S11011   8.637   2.713  13.449 -0.2615  0.0777 -0.0898
 4208S        S11012   2.363   1.473  29.203  0.2010  0.6764  0.2426
 4209S        S11013  12.308  11.126  17.712 -0.3033  0.4579  0.2281
 4210S        S11014   0.775  11.968  11.629 -0.1826  0.0420 -0.6246
 4211S        S11015   5.588   8.444  19.102 -0.3854  0.1824 -0.1657
 4212S        S11016   8.952   3.501  11.891  0.0068  0.1348  0.3823
 4213S        S11017  12.171   9.218  28.237 -0.0261  0.1499 -0.1248
 4214S        S11018   5.957   6.912  21.260  0.1999 -0.2700  0.0646
 4215S        S11019   6.204   0.450  26.275  0.3188  0.0468  0.2350
 4216S        S11020   3.178   3.145  25.257 -0.7799  0.2380 -0.4181
 4217S        S11021  11.543   1.399  13.391 -0.5072  0.0078 -0.3541
 4218S        S11022   6.307   4.859  17.171  0.4698  0.2867 -0.5298
 4219S        S11023   2.583  12.008  22.856 -0.6134  0.1338  0.1713
 4220S        S11024   7.723   5.611  13.904  0.0746 -0.2068 -0.0950
 4221S        S11025   5.274   3.557  19.314  0.0584 -0.2902 -0.1080
 4222S        S11026   3.023   0.456  20.534 -0.0226  0.2448  0.4580
 4223S        S11027   3.331   7.096  31.566  0.0906 -0.4288 -0.2770
 4224S        S11028   7.488   1.039   9.432 -0.0953 -0.0564 -0.3090
 4225S        S11029   5.362   7.068  18.896  1.3011  0.1607 -0.1822
 4226S        S11030   7.983   3.272  16.354 -0.2605  0.1044  0.2985
 4227S        S11031   8.740   0.813  19.366 -0.2924  0.3177  0.1270
 4228S        S11032   7.957  11.352  25.859  0.5432 -0.1730  0.2589
 4229S        S11033   5.372   1.224  20.734  0.3014  0.7954  0.0957
 4230S        S11034   2.223   0.636  32.073 -0.3007 -0.0569  0.0180
 4231S        S11035   3.688  11.022  13.863  0.3250 -0.4304  0.2938
 4232S        S11036   2.082   8.622  24.779  0.0997  0.4789  0.6703
 4233S        S11037   6.605   6.105  28.260 -0.3234 -0.4266  0.3033
 4234S        S11038  11.885  11.106  17.183  0.2129  0.3522 -0.3770
 4235S        S11039  11.547   3.644  14.443 -0.1514  0.0917 -0.0830
 4236S        S11040   0.064   1.791  15.329 -0.2905  0.2417  0.1318
 4237S        S11041   9.161   8.320  15.512  0.0260 -0.2532  0.3655
 4238S        S11042   4.984   2.187  30.806  0.1324 -0.6395 -0.4316
 4239S        S11043   7.889   4.285  28.883 -0.0340  0.3210 -0.3490
 4240S        S11044   1.757  10.162  19.465 -0.1274 -0.0525 -0.2728
 4241S        S11045   4.100   1.896  17.423 -0.0828  0.6586 -0.5344
 4242S        S11046  10.787   4.345  15.621 -0.2225 -0.6100 -0.0896
 4243S        S11047   4.259   1.285  26.435  0.4518 -0.0248  0.3533
 4244S        S11048   9.180   0.247  11.670 -0.4848  0.1223 -0.0658
 4245S        S11049   0.984   0.686  31.902 -0.2387 -0.1232 -0.2965
 4246S        S11050  11.538  11.434  30.030  0.4636  0.2798 -0.3189
 4247S        S11051  11.865   4.625  26.715  0.1134  0.2698  0.0426
 4248S        S11052   5.093   4.813  12.784 -0.3458  0.1423  0.0716
 4249S        S11053   4.026   2.025  28.345  0.0590  0.2436  0.1105
 4250S        S11054   6.824  11.711  12.304 -0.1434 -0.1228 -0.0616
 4251S        S11055   8.817   3.732  25.210 -0.2645 -0.2947  0.6849
 4252S        S11056  12.030   3.108  12.631  0.1147  0.2082 -0.1949
 4253S        S11057   3.823   1.034  13.637 -0.1595  0.2564 -0.1406
 4254S        S11058  10.350  10.229  48.225  0.1633  0.1919 -0.0837
 4255S        S11059  11.623  11.027  15.111 -0.2577  0.0055  0.2437
 4256S        S11060   5.686   8.980  24.368 -0.3909 -0.2621 -0.2132
 4257S        S11061   6.601  11.909  20.254 -0.2179  0.2616 -0.3977
 4258S        S11062  10.312  11.657  16.692 -0.1779  0.0427  0.5022
 4259S        S11063   9.306   8.993  21.942  0.1557 -0.0794 -0.2905
 4260S        S11064   0.679  11.511  41.275 -0.1643  0.2249  0.4531
 4261S        S11065   5.596   6.821  14.343  0.0785 -0.3054 -0.0105
 4262S        S11066  11.333   3.587  24.202  0.0368 -0.0762  0.0577
 4263S        S11067   9.277   4.358  12.219  0.4639 -0.3501 -0.2582
 4264S        S11068   4.456  10.447  31.055  0.0702  0.1282  0.1143
 4265S        S11069   3.713  12.301  23.133 -0.8281 -0.0408 -0.2683
 4266S        S11070   4.243   9.647  21.383 -0.1145 -0.1594  0.0854
 4267S        S11071  10.470   4.336  27.632  0.0175 -0.2117  0.0622
 4268S        S11072   6.076  12.278  16.956 -0.2620  0.8552 -0.2173
 4269S        S11073   1.365   3.131  23.352  0.1231 -0.7876 -0.0639
 4270S        S11074   0.758   9.072  14.168 -0.2151  0.1289 -0.3025
 4271S        S11075   4.592   2.695  26.231  0.3015  0.0101  0.0351
 4272S        S11076  10.711  11.196  24.717 -0.3543  0.1082 -0.1350
 4273S        S11077   2.526   5.362  20.659 -0.1646 -0.0901 -0.7561
 4274S        S11078   2.345   6.058  25.812 -0.2195 -0.1787 -0.4162
 4275S        S11079   7.031  10.744  17.726 -0.4278  0.2120 -0.1461
 4276S        S11080   1.204  10.419  16.291 -0.3185  0.4531  0.1945
 4277S        S11081   9.239  12.156  31.543  0.2098 -0.3784 -0.0007
 4278S        S11082   3.831   2.044  25.939 -0.1279  0.3344  0.3667
 4279S        S11083   9.850  10.258  28.052 -0.0716 -0.2383  0.2920
 4280S        S11084  11.627   5.456  24.364 -0.3569  0.1183 -0.2582
 4281S        S11085   4.580   9.809  13.829 -0.4912 -0.2702  0.0200
 4282S        S11086   0.432   7.756  14.437  0.3526  0.1553 -0.3166
 4283S        S11087   6.347   5.678  11.788 -0.2768 -0.5380  0.0233
 4284S        S11088   7.721   2.296  18.146 -0.4720  0.6600 -0.7600
 4285S        S11089   5.257   3.729  22.726  0.1843 -0.2692 -0.1460
 4286S        S11090   3.408   2.203  15.886  0.5528 -0.4037 -0.5454
 4287S        S11091   7.365   4.820  20.462  0.0733  0.0958 -0.4667
 4288S        S11092  11.123   1.777  25.053 -0.0153 -0.0255 -0.2397
 4289S        S11093   3.701   4.644  21.829  0.1856  0.0742 -0.1245
 4290S        S11094   5.921  11.595  30.399 -0.0744 -0.5264 -0.2182
 4291S        S11095   2.724   5.233  15.827  0.1222 -0.4385  0.2351
 4292S        S11096   6.434   6.775  15.109  0.0943 -0.0045 -0.0320
 4293S        S11097   2.342  10.601  17.305  0.0330  0.5940  0.0129
 4294S        S11098   5.662   7.473  20.200 -0.0414  0.3846 -0.4669
 4295S        S11099  11.193   8.114  16.602  0.1463 -0.0513  0.5195
 4296S        S11100   9.709   8.849  19.768  0.4353  0.2164  0.4222
 4297S        S11101   2.042   9.772  17.037  0.1219  0.0806  0.0702
 4298S        S11102  10.065   7.113  30.167 -0.1875 -1.0469  0.0131
 4299S        S11103   9.621   7.479  32.608  0.1431 -0.2486  0.4232
 4300S        S11104   7.859   3.347  18.613 -0.1533 -0.0208  0.1233
 4301S        S11105   9.832   7.477  28.171 -0.5705 -0.1988  0.1921
 4302S        S11106  11.292   4.606  22.478 -0.1735  0.1702  0.0543
 4303S        S11107   2.684   8.229  27.621  0.3415  0.3862 -0.2174
 4304S        S11108   2.954   4.187  23.148 -0.3177  0.5099  0.1695
 4305S        S11109  10.709   0.077  27.802 -0.2391 -0.2052  0.0216
 4306S        S11110   4.135   8.456  22.073  0.0225  0.5603 -0.4457
 4307S        S11111   9.528  11.361  19.048  0.1975 -0.3386  0.4234
 4308S        S11112   6.925   1.717  13.083  0.0133 -0.1749 -0.1837
 4309S        S11113  10.715  11.409  14.821  0.0034 -0.0242 -0.0222
 4310S        S11114   0.987  10.424  28.420  0.6618  0.2889 -0.5553
 4311S        S11115  10.404  11.276  23.796 -0.1562 -0.1123 -0.4336
 4312S        S11116   0.519   5.499  13.881 -0.0374 -0.1096  0.1983
 4313S        S11117   2.621  10.404  24.686  0.4032 -0.2925 -0.0969
 4314S        S11118   5.525   1.151  26.902  0.1433 -0.0227 -0.7520
 4315S        S11119   3.494   0.307  27.870 -0.1854 -0.4087  0.0919
 4316S        S11120   6.503   4.306  16.439  0.3323  0.3339  0.3637
 4317S        S11121   0.298   7.912  11.405  0.4888 -0.1494 -0.4174
 4318S        S11122  11.280   5.097  25.995  0.4680  0.1481  0.7329
 4319S        S11123   0.816   9.376  13.768 -0.1782 -0.0423 -0.1511
 4320S        S11124   9.712   2.407   4.889  0.3480 -0.1432  0.0133
 4321S        S11125   9.175   9.285  14.576 -0.1038 -0.0849 -0.2324
 4322S        S11126   1.670   9.562  16.679  0.3252  0.1197  0.4489
 4323S        S11127   2.679   7.723  15.740 -0.0498 -0.0530 -0.3853
 4324S        S11128   1.969   5.801  14.541  0.1657 -0.2058 -0.1370
 4325S        S11129   5.369   7.452  47.698 -0.1012 -0.4269  0.2399
 4326S        S11130   1.488   2.233  15.792 -0.3205 -0.3592  0.0464
 4327S        S11131   5.029   2.591  18.541 -0.0567 -0.1663  0.1136
 4328S        S11132   4.291   9.308  33.641 -0.7640 -0.4861  0.2111
 4329S        S11133   6.589   3.454  25.133 -0.6786  0.0215 -0.1954
 4330S        S11134   2.607   5.247  12.895 -0.6101 -0.0823 -0.1682
 4331S        S11135   7.714   9.902  12.118  0.4482  0.1335  0.0761
 4332S        S11136   9.013   4.955  16.805  0.0750  0.2767  0.3356
 4333S        S11137   3.035   0.325  27.366 -0.3260  0.6063 -0.0537
 4334S        S11138   9.092  11.270  23.651 -0.3883 -0.1339 -0.1575
 4335S        S11139  12.270   6.565  16.505 -0.2678  0.2117  0.2886
 4336S        S11140   0.143   7.509  14.883 -0.2547 -0.2913 -0.5064
 4337S        S11141   0.715   7.811  29.091  0.2445  0.1114 -0.1411
 4338S        S11142  10.376   5.001  17.115 -0.1942  0.3283 -0.2734
 4339S        S11143   4.099  11.555  12.370 -0.2264  0.1289  0.0344
 4340S        S11144  11.343   8.527  11.624  0.1336  0.3634  0.3771
 4341S        S11145  12.129   0.252  22.141 -0.4141 -0.3879  0.1329
 4342S        S11146  10.667  11.677  30.212  0.0205 -0.2392  0.0236
 4343S        S11147  12.274   8.967  14.888  0.2422  0.0590  0.1936
 4344S        S11148   2.271  12.134  28.105 -0.2363  0.1270  0.2128
 4345S        S11149   6.834   7.838  22.214  0.0018  0.0707  0.4194
 4346S        S11150   6.491   7.239  27.095 -0.1840  0.2449  0.5240
 4347S        S11151   9.613   1.657  29.266 -0.1649  0.8332  0.4031
 4348S        S11152  10.933   1.634  27.321  0.2393  0.0884  0.2310
 4349S        S11153   9.795   3.439  23.469  0.8232  0.0869 -0.1354
 4350S        S11154   1.587   3.365  29.388 -0.3511  0.0005 -0.6865
 4351S        S11155   7.086   1.067  13.836  0.1176 -0.0685  0.1184
 4352S        S11156   7.522   4.353  27.492 -0.1294 -0.2082 -0.4142
 4353S        S11157   0.602   6.451  11.815 -0.0663 -0.4024 -0.0731
 4354S        S11158   3.282  11.656  21.873 -0.0297 -0.3446  0.3341
 4355S        S11159  10.538   9.388  28.595 -0.1835  0.1072  0.2142
 4356S        S11160   2.888   8.853  21.038  0.2552 -0.3715 -0.4645
 4357S        S11161   4.216   2.991  19.419 -0.0612  0.2837  0.0695
 4358S        S11162   6.328   8.086  18.380 -0.1560 -0.0994  0.5788
 4359S        S11163   5.181   0.684  23.137 -0.0114 -0.1857  0.0539
 4360S        S11164  10.309  10.974  31.436  0.3562  0.2655 -0.0077
 4361S        S11165   0.412   2.886  18.559  0.3192 -0.1857  0.1917
 4362S        S11166   5.795   2.370  12.219 -0.4570 -0.2869  0.1807
 4363S        S11167  12.154   5.938  16.526 -0.4013  0.0603  0.3318
 4364S        S11168   7.957   6.167  21.957 -0.1691 -0.0755 -0.0328
 4365S        S11169   9.270  10.713  25.374 -0.0586 -0.3024  0.6427
 4366S        S11170   2.786   0.171  12.814 -0.0843 -0.0875 -0.7890
 4367S        S11171   5.312   2.184  15.682 -0.2435 -0.4651  0.4337
 4368S        S11172  11.960   7.129  22.805 -0.0293 -0.0862 -0.1987
 4369S        S11173   7.705   6.152  23.352 -0.2814  0.1240 -0.1555
 4370S        S11174   7.941  11.119  26.385 -0.0546 -0.3393  0.3313
 4371S        S11175  10.634   0.697  16.678  0.1436  0.3423 -0.0046
 4372S        S11176   4.204   2.318  24.733  0.3121 -0.2417 -0.2544
 4373S        S11177  11.857   1.353  27.100 -0.4197  0.0744  0.0564
 4374S        S11178   9.929   0.551  28.321  0.6545 -0.0366 -0.2794
 4375S        S11179   0.365   7.523  27.512 -0.5685  0.2827 -0.3925
 4376S        S11180   7.429   3.933  15.756 -0.0358 -0.2009 -0.3314
 4377S        S11181   3.418   5.956  13.924 -0.0601 -0.2090 -0.2106
 4378S        S11182   8.537  11.760  25.110 -0.1440  0.5930 -0.0761
 4379S        S11183  10.418   7.799  30.430  0.1027  0.2080 -0.4301
 4380S        S11184   2.862   5.272  26.322 -0.0108 -0.0730 -0.0561
 4381S        S11185  10.292   9.276  11.694 -0.0751 -0.2327 -0.1967
 4382S        S11186   8.707   6.795  23.021 -0.4098 -0.0827  0.0281
 4383S        S11187   8.233   9.443  17.049 -0.2017 -0.4127 -0.0223
 4384S        S11188   4.975  10.846  26.810  0.4015  0.2764  0.0597
 4385S        S11189  12.321   4.396  15.079  0.1914  0.0728  0.3452
 4386S        S11190   1.527   3.020  13.001  0.2572  0.1091 -0.3520
 4387S        S11191   4.954  10.122  14.348 -0.2696  0.2406  0.0472
 4388S        S11192   4.340   2.300  20.727  0.1876 -0.4818 -0.3776
 4389S        S11193   7.759   8.365  16.484  0.1493 -0.5642 -0.3835
 4390S        S11194  11.169   7.199  22.082 -0.7791 -0.0316  0.1615
 4391S        S11195  10.597   0.523  30.549  0.3523 -0.1336  0.0052
 4392S        S11196   1.438   7.473  17.722  0.1831  0.1182 -0.2082
 4393S        S11197  12.139   6.378  24.009  0.0082  0.4566 -0.3925
 4394S        S11198   3.662   2.588  16.252 -0.2896 -0.3623  0.1346
 4395S        S11199   0.378   5.092  14.441  0.2378  0.1795 -0.0136
 4396S        S11200   4.716   1.335  20.316  0.2461 -0.5702  0.2870
 4397S        S11201  10.371  10.119  25.952 -0.3821 -0.4773  0.2120
 4398S        S11202   1.520  12.001  27.250  0.4896  0.3327 -0.0424
 4399S        S11203   4.303   7.237  28.425 -0.0038  0.1281  0.1350
 4400S        S11204   9.855   6.925  11.588 -0.1219 -0.5035  0.0114
 4401S        S11205   3.681   9.206  21.994 -0.2850  0.2208  0.8681
 4402S        S11206  10.865   8.411  18.895  0.3291 -0.2653  0.6046
 4403S        S11207  11.172   5.012  11.897  0.3207 -0.1683  0.0886
 4404S        S11208   2.447   7.295  31.588  0.2733 -0.3145  0.9746
 4405S        S11209   1.426   5.907  11.370 -0.1135  0.1762  0.2085
 4406S        S11210   6.258   5.783  22.069 -0.2607  0.0677 -0.3353
 4407S        S11211   6.479   3.542  19.799  0.0971  0.3466  0.1201
 4408S        S11212  12.132   7.698  20.590  0.0170 -0.8222 -0.3856
 4409S        S11213   2.668  11.153  23.361 -0.3812 -0.1841  0.2063
 4410S        S11214   0.926   1.614  16.425  0.0702 -0.8010 -0.1250
 4411S        S11215   2.064   7.763  24.389 -0.0032  0.3515  0.1025
 4412S        S11216   7.884   8.045  17.701 -0.3066  0.1022 -0.4652
 4413S        S11217   0.374   6.879  14.046  0.1471  0.3163  0.1705
 4414S        S11218  10.428  11.400  32.218  0.1006 -0.3169 -0.4827
 4415S        S11219   8.780   0.074  15.261  0.2637 -0.5493  0.5119
 4416S        S11220   7.372   3.454  13.142  0.5347 -0.4186 -0.0572
 4417S        S11221  10.037   3.456  28.161  0.0617  0.1232  0.3739
 4418S        S11222   2.784   6.615  26.339  0.2114  0.2263  0.6234
 4419S        S11223   7.338   9.306  12.852 -0.2067 -0.2339 -0.0480
 4420S        S11224   8.805   6.638  17.376  0.1129  0.6010 -0.0829
 4421S        S11225   6.298   3.068  23.708 -0.0238 -0.0225 -0.1934
 4422S        S11226   6.710   2.583  16.753  0.4388  0.3445 -0.1158
 4423S        S11227   1.748   5.245  20.721  0.3164 -0.4074  0.3628
 4424S        S11228   7.821   0.575  20.353 -0.0805  0.0248 -0.1198
 4425S        S11229   5.879  11.804  21.618  0.4174  0.0915 -0.1666
 4426S        S11230  11.081   4.033  25.881  0.3947 -0.4480  0.0136
 4427S        S11231   9.865   7.632  28.681 -0.8167  0.8149  0.4304
 4428S        S11232  10.972   3.028  12.418 -0.1053  0.3396  0.0541
 4429S        S11233   6.123  12.163  18.297 -0.1524 -0.1599  0.4098
 4430S        S11234   7.950   6.475  22.356  0.3523 -0.1069 -0.4592
 4431S        S11235   0.344  11.772  28.151  0.4727 -0.4031 -0.4235
 4432S        S11236   2.784   4.924  17.505 -0.0293 -0.5030  0.2066
 4433S        S11237   5.797   7.334  17.830  0.2944  0.0011  0.5028
 4434S        S11238   9.303   3.257  28.145  0.3746 -0.8642 -0.4537
 4435S        S11239   8.800   3.207  13.594 -0.2128 -0.1033 -0.2899
 4436S        S11240   2.258  10.213  18.385  0.2466 -0.0223 -0.0336
 4437S        S11241  10.295   5.512  18.779  0.3058  0.5426  0.2753
 4438S        S11242  11.878   6.967  20.994 -0.1957  0.4028  0.1755
 4439S        S11243   6.098   4.980  16.097  0.2667  0.1719  0.1637
 4440S        S11244   9.494   4.689  29.392  0.6003  0.0855  0.0578
 4441S        S11245   2.786   7.064  23.950 -0.1171  0.4365  0.3177
 4442S        S11246   3.810   4.766  17.573 -0.1354 -0.0178  0.3287
 4443S        S11247  12.303  11.539  20.422 -0.2106  0.0954  0.0756
 4444S        S11248   7.848   1.129  14.301  0.2867 -0.1851  0.3319
 4445S        S11249   1.670   0.616  11.435  0.0734 -0.2382  0.2373
 4446S        S11250   5.579   2.677  24.880 -0.3345 -0.3415 -0.2497
 4447S        S11251   5.759   8.716  12.523  0.1540  0.0543  0.3253
 4448S        S11252   2.830   9.899  20.567  0.0404 -0.4400 -0.0625
 4449S        S11253   9.961   9.676  31.882 -0.4509  0.4793  0.1358
 4450S        S11254   8.274   9.034  26.769 -0.1276 -0.4289  0.2478
 4451S        S11255   4.340   5.085  28.284  0.6969  0.1195 -0.0826
 4452S        S11256   5.228   0.496  20.637  0.0670  0.0923  0.1446
 4453S        S11257   5.878   7.806  29.706 -0.3756 -0.7217  0.3802
 4454S        S11258   4.980   0.374  21.211  0.2874  0.0454 -0.0479
 4455S        S11259   9.158   8.349  12.721 -0.1232  0.2314 -0.9145
 4456S        S11260   3.925   4.561  24.955  0.0516 -0.2120  0.5681
 4457S        S11261   3.299   6.323  27.819  0.1748  0.3425 -0.4813
 4458S        S11262   4.836   6.292  18.063 -0.6803 -0.4717 -0.1032
 4459S        S11263  10.403   0.462  24.774  0.0128  0.0044 -0.2648
 4460S        S11264   7.792   6.213  24.808 -0.3984 -0.5976 -0.2198
 4461S        S11265   7.265  10.543  24.579 -0.1780  0.0944 -0.1787
 4462S        S11266   7.933   0.102  19.659  0.1612  0.3200  0.1808
 4463S        S11267   2.151   9.207  21.508  0.5146 -0.0402  0.1062
 4464S        S11268  11.262   8.209  15.091  0.1951  0.2964  0.2203
 4465S        S11269  10.172   4.814  21.328  0.3520  0.1637  0.2332
 4466S        S11270   5.241   5.553  15.930 -0.2230  0.1641 -0.0630
 4467S        S11271   4.904   2.532  17.838  0.2880 -0.1147 -0.2375
 4468S        S11272   8.283  10.736  24.739 -0.6612  0.4557 -0.3723
 4469S        S11273   6.681   8.373  32.449  0.0788  0.9904  0.9345
 4470S        S11274  10.097   2.280  22.508 -0.3002 -0.3729 -0.5579
 4471S        S11275   4.750   5.977  24.169 -0.2876 -0.0634  0.0840
 4472S        S11276   7.837   4.901   8.585 -0.3727  0.1621 -0.1102
 4473S        S11277  12.231  11.401  18.150  0.2697  0.1093 -0.5227
 4474S        S11278   9.938  10.306  16.202 -0.5182  0.3959  0.3647
 4475S        S11279   9.123   2.830  30.993 -0.0940  0.2743  0.0703
 4476S        S11280   9.017   8.754  17.439 -0.0410  0.0784 -0.1521
 4477S        S11281   1.407  11.570  21.738  0.3420 -0.0705 -0.0041
 4478S        S11282  10.964  12.225  26.074  0.1888 -0.0596  0.0706
 4479S        S11283   5.946   8.913  20.717  0.1909  0.0390 -0.3286
 4480S        S11284   0.865   3.783  19.956 -0.7086  0.0372 -0.0076
 4481S        S11285  12.052   0.325  26.016  0.1843 -0.2086 -0.4965
 4482S        S11286   2.987   2.337  17.168 -0.6305  0.1051 -0.0284
 4483S        S11287   5.803   1.811  32.246 -0.2252 -0.6975 -0.3983
 4484S        S11288   6.134   6.846  28.816 -0.1253 -0.2291  0.1661
 4485S        S11289   4.182   3.117  15.701 -0.4558  0.0554  0.1046
 4486S        S11290   4.652   7.162  15.903  0.0578  0.0110 -0.1528
 4487S        S11291   6.227  10.456  30.336 -0.0549  0.1516  0.5690
 4488S        S11292   9.080  10.967  25.743 -0.1865  0.1438 -0.0044
 4489S        S11293   6.618  10.701  25.374 -0.0398  0.2721  0.4182
 4490S        S11294  11.053   0.606  18.647 -0.0948 -0.1476  0.1369
 4491S        S11295  11.981  12.044  23.267  0.5965  0.2101 -0.3724
 4492S        S11296   7.139  10.041  25.530 -0.3980  0.0038  0.0563
 4493S        S11297  10.666   4.121  29.734  0.0798  0.2392 -0.2662
 4494S        S11298   1.557  10.057  16.584  0.5875  0.1592  0.1349
 4495S        S11299  10.679   4.455  13.119 -0.2637  0.3243 -0.2115
 4496S        S11300   2.633   2.555  22.276 -0.4271 -0.4028 -0.3227
 4497S        S11301  11.700  12.043  32.167 -0.0731  0.5555  0.2512
 4498S        S11302   7.354  12.344  30.710  1.0111 -0.0352  0.3895
 4499S        S11303   2.871  11.358  18.251  0.0848 -0.1646 -0.0014
 4500S        S11304   1.144   1.699  21.992 -0.1128 -0.3464  0.0636
 4501S        S11305   9.860  11.575  42.774  0.0088 -0.7283 -0.1045
 4502S        S11306  12.103  10.556  17.321  0.3405 -0.2500  0.1324
 4503S        S11307   0.434   0.515  18.392 -0.4355 -0.1442 -0.1036
 4504S        S11308   7.963   6.495  24.044 -0.0633  0.3051  0.2847
 4505S        S11309   1.176   9.384  26.043 -0.4929  0.2246  0.0450
 4506S        S11310   1.913  11.416  22.734  0.4483  0.9112  0.2253
 4507S        S11311   5.294   4.371  22.018 -0.0880 -0.0968  0.2757
 4508S        S11312   9.352   2.545  28.606  0.0132 -0.3025 -0.2615
 4509S        S11313   7.809   4.828  13.663  0.2963 -0.0735  0.1134
 4510S        S11314   9.417   9.225  18.103 -0.0109  0.3672 -0.0669
 4511S        S11315  10.590   0.620  17.590 -0.3327  0.1276 -0.1562
 4512S        S11316   8.895   4.609  29.399 -0.0501  0.1097 -0.3350
 4513S        S11317   2.261   9.726  27.663 -0.0649  0.3851 -0.1385
 4514S        S11318   3.620   0.449  27.340 -0.1766 -0.1148  0.4816
 4515S        S11319   6.030   0.939   3.486  0.1610 -0.3649  0.0504
 4516S        S11320   3.775   2.819  28.663 -0.0715 -0.5101 -0.5531
 4517S        S11321   6.920   5.777  15.263  0.0666  0.2699  0.0598
 4518S        S11322   8.692   9.033  28.654  0.1255  0.3090  0.5154
 4519S        S11323   9.644   6.423  12.249 -0.1206  0.0906 -0.3505
 4520S        S11324   3.380  10.991  23.097  0.1288 -0.0150  0.0047
 4521S        S11325   0.216   9.333  17.009  0.4608 -0.2016 -0.5723
 4522S        S11326   5.133   3.957  20.450  0.0339 -0.3270 -0.2762
 4523S        S11327   4.249   8.756  20.328 -0.2246 -0.1619 -0.1645
 4524S        S11328   3.225   6.590  18.410 -0.2508  0.7058 -0.0394
 4525S        S11329  10.049   0.059  18.805  0.2155  0.5732  0.1844
 4526S        S11330   6.400  10.105  13.265  0.1398 -0.1799  0.1539
 4527S        S11331   4.578   4.501  18.054  0.0410 -0.2307  0.0240
 4528S        S11332   5.535   4.314  27.330 -0.2443  0.1513 -0.0504
 4529S        S11333   4.377   6.949  22.615  0.0440  0.2934 -0.1116
 4530S        S11334   2.086   9.716  31.712  0.1585  0.4516  0.3548
 4531S        S11335   2.423   4.475  15.699 -0.2920  0.1629  0.2640
 4532S        S11336   6.431   9.775  14.702  0.1217  0.2935  0.0004
 4533S        S11337   8.363   5.656  17.228  0.0858  0.1850 -0.1053
 4534S        S11338   9.713   5.221  29.241  0.4765 -0.3225  0.0718
 4535S        S11339  11.801   8.703  44.482  0.2638  0.2344  0.5816
 4536S        S11340  11.882   9.682  19.463 -0.0593 -0.4687  0.1127
 4537S        S11341   0.192   0.353  15.241 -0.1259 -0.0794  0.0212
 4538S        S11342   3.315  12.348  29.960  0.4640 -0.0849 -0.5928
 4539S        S11343   7.614   8.893  16.544 -0.0950 -0.0189  0.0838
 4540S        S11344   3.939   4.675  20.912  0.5690  0.4186  0.1618
 4541S        S11345   9.157   1.637  18.940  0.1930  0.2150  0.0296
 4542S        S11346   3.862  10.750  29.829  0.2025  0.0215 -0.6676
 4543S        S11347  11.050  11.750  11.787  0.4574 -0.1014  0.0325
 4544S        S11348   0.202   1.608  25.939 -0.0756  0.2379  0.0543
 4545S        S11349   6.375   7.024  28.340  0.0913  0.4334 -0.0301
 4546S        S11350   2.464   3.979  28.463 -0.1949 -0.1690 -0.4931
 4547S        S11351   0.662   0.247  19.163  0.0792 -0.3268  0.4914
 4548S        S11352   7.512   2.094  25.362 -0.6316 -0.0345 -0.3242
 4549S        S11353   0.574   1.314  26.830 -0.0086  0.1676  0.3501
 4550S        S11354   0.953   0.546  14.150  0.1306 -0.2523 -0.2512
 4551S        S11355  12.088   7.849  16.674  0.0600 -0.2451 -0.6027
 4552S        S11356   1.783  11.447  22.192 -0.1093 -0.1625  0.4127
 4553S        S11357  10.386   6.979  19.057  0.2976 -0.2647  0.3234
 4554S        S11358   8.697   9.213  27.078 -0.1511  0.0830 -0.2069
 4555S        S11359   1.828   0.333  22.446  0.6548  0.4631 -0.0271
 4556S        S11360  10.518   2.217  21.264 -0.3950  0.3766  0.2852
 4557S        S11361   1.294   6.098  11.885 -0.1331 -0.0895 -0.2694
 4558S        S11362   9.656   0.568  11.690 -0.2672 -0.0355 -0.0235
 4559S        S11363   8.446   0.541  18.246  0.1158 -0.3889 -0.3377
 4560S        S11364   9.576  10.328  28.510  0.3166  0.1772 -0.2818
 4561S        S11365   0.974   1.378  23.658 -0.0089  0.2900 -0.3091
 4562S        S11366   2.832  11.501  19.401  0.2198  0.3594  0.1096
 4563S        S11367   6.542   7.764  13.549  0.1042  0.2111  0.4152
 4564S        S11368   4.831   6.958  33.873 -0.0992  0.3891  0.0285
 4565S        S11369   3.839   7.615  18.329  0.1475  0.0565 -0.0676
 4566S        S11370  10.428   4.619  24.732 -0.2606 -0.1921  0.2460
 4567S        S11371   3.236   5.916  12.556  0.0573  0.1105  0.4856
 4568S        S11372   2.721   4.162  26.365 -0.3198  0.0217 -0.6434
 4569S        S11373   8.158   3.566  30.231 -0.5702  0.1971  0.0313
 4570S        S11374   0.418   4.861  14.916  0.3415  0.1654  0.2457
 4571S        S11375   4.231   1.525  19.021 -0.1682 -0.0482  0.4222
 4572S        S11376   3.056   7.442  25.199 -0.1991  0.0273 -0.2180
 4573S        S11377   0.912   8.697  11.358  0.4201 -0.1711  0.1262
 4574S        S11378   3.656   7.557  19.650 -0.1300  0.3525  0.0746
 4575S        S11379   6.164   6.420  19.980  0.3734 -0.0457  0.4999
 4576S        S11380   1.977   6.189  17.661  0.0704  0.3523  0.0651
 4577S        S11381   9.046   7.303  27.552  0.1133  0.2252  0.4728
 4578S        S11382   1.983   9.033  14.880 -0.3300  0.2715  0.4851
 4579S        S11383  10.641   7.262  17.810 -0.0377  0.5025  0.2500
 4580S        S11384   1.113  10.816  22.647  0.0561  0.0420 -0.1760
 4581S        S11385   6.076   5.275  22.035 -0.3044  0.1350  0.0415
 4582S        S11386   7.171   9.474  48.248 -0.0453 -0.2475  0.2787
 4583S        S11387   3.301   5.528  25.372  0.2060  0.0054 -0.1173
 4584S        S11388   0.582   8.342  22.851  0.0698 -0.2980 -0.1203
 4585S        S11389   1.900  10.419  23.163 -0.2811 -0.1449 -0.1031
 4586S        S11390   1.725  11.419  14.965  0.1724  0.0138 -0.0863
 4587S        S11391   3.157   1.660  20.303 -0.2968 -0.0077  0.2358
 4588S        S11392   6.081   7.833  12.752 -0.4328  0.1565 -0.5172
 4589S        S11393   5.349  11.624  14.651  0.1542  0.2703  0.3774
 4590S        S11394   5.472   8.970  17.528 -0.2926 -0.0792 -0.0462
 4591S        S11395   6.138   4.490  30.553  0.5327 -0.2796 -0.3986
 4592S        S11396   7.339   4.326  13.340 -0.0417  0.1613 -0.1335
 4593S        S11397   0.198  10.782  29.553 -0.7332 -0.2246  0.0566
 4594S        S11398   9.582   3.519  14.205 -0.1065 -0.1059 -0.3460
 4595S        S11399   1.402   2.923  27.296  0.3339  0.3288 -0.1202
 4596S        S11400   1.858   4.121  13.625 -0.2011  0.1168 -0.0778
 4597S        S11401   5.041  10.254  10.048  0.0901 -0.0113  0.1113
 4598S        S11402   0.478  10.594  19.817 -0.0723 -0.1468 -0.4625
 4599S        S11403   4.175   2.766  29.761  0.0888 -0.5455 -0.0984
 4600S        S11404   6.980  12.116  30.201  0.1935  0.3624 -0.1952
 4601S        S11405  10.995   0.154  17.117 -0.7835 -0.5368 -0.1446
 4602S        S11406  10.620   6.302  23.595 -0.4087 -0.0255  0.0413
 4603S        S11407   5.118   1.662  16.626  0.3290  0.4247 -0.2334
 4604S        S11408   4.275   2.420  25.283  0.1089 -0.0831 -0.5116
 4605S        S11409   6.698   2.775  23.812 -0.1266  0.2724 -0.0219
 4606S        S11410  10.855   3.204  25.122 -0.3471 -0.0726 -0.8445
 4607S        S11411   8.278   0.805  26.249 -0.0774 -0.1469  0.2158
 4608S        S11412  10.706   7.978  12.881 -0.1747  0.1852  0.1690
 4609S        S11413   2.413   4.327  16.481 -0.3919  0.0718 -0.2420
 4610S        S11414  11.334   1.247  42.641  0.2276  0.4597  0.3735
 4611S        S11415   1.348   2.246  46.553  0.2521 -0.1194  0.3969
 4612S        S11416  11.777   5.634  15.303 -0.0695 -0.0373 -0.1552
 4613S        S11417   1.818  11.653  17.825  0.3020  0.2069 -0.3337
 4614S        S11418   3.142   4.830  26.379 -0.0515 -0.1443  0.2447
 4615S        S11419   4.843   4.362  25.348  0.2815 -0.2746 -0.0727
 4616S        S11420   5.345   0.096  30.442  0.0481  0.1996 -0.7030
 4617S        S11421   4.663   1.166  26.728 -0.2899  0.4879 -0.3725
 4618S        S11422   9.807   1.105  21.719 -0.4045  0.5098 -0.0100
 4619S        S11423   5.847   6.728  48.259  0.0988  0.1397  0.2158
 4620S        S11424   6.928   1.388  19.813 -0.0543 -0.3578  0.1018
 4621S        S11425   1.928   3.602  19.851  0.3884 -0.0698  0.4587
 4622S        S11426   6.674   7.735  18.897  0.0358  0.1429  0.4603
 4623S        S11427   6.361  10.247  11.760 -0.1975  0.2667 -0.1546
 4624S        S11428   3.017  10.517  15.141  0.6230 -0.2909  0.8550
 4625S        S11429  11.985   0.486  22.590  0.0632  0.2131  0.2579
 4626S        S11430   3.580  10.091  20.658  0.5109 -0.1341 -0.2365
 4627S        S11431   1.387   8.703  21.584 -0.0161  0.1246  0.4085
 4628S        S11432   2.069   7.306  21.539  0.2593  0.4507  0.7305
 4629S        S11433   5.518   7.097  20.942 -0.0465  0.2277  0.1762
 4630S        S11434   6.928   4.488  30.353 -0.9690  0.7763 -0.3327
 4631S        S11435   9.444  10.859  14.892  0.4264 -0.0208 -0.0105
 4632S        S11436   5.963  10.098  15.031 -0.3884  0.1970 -0.0270
 4633S        S11437   9.808   3.127  14.471 -0.3261  0.1001  0.1318
 4634S        S11438  10.106   0.780  14.566  0.0287  0.0486 -0.1777
 4635S        S11439   2.492   7.973  11.968  0.2095  0.1013 -0.3666
 4636S        S11440   7.640   4.135  27.914 -0.3312 -0.5115 -0.2598
 4637S        S11441   4.821  10.072  27.919  0.0868  0.2080 -0.6327
 4638S        S11442   7.684   7.454  14.743 -0.0178  0.2314 -0.3263
 4639S        S11443  10.038   6.548  13.919  0.5056  0.5443 -0.3777
 4640S        S11444   7.828   3.671  16.090  0.4865 -0.5993  0.0535
 4641S        S11445   7.323   7.150  12.951 -0.0174 -0.3345  0.1968
 4642S        S11446   3.235  10.174  11.667 -0.1573  0.0061 -0.1973
 4643S        S11447   1.418   2.376  23.947 -0.1735 -0.9870  0.0661
 4644S        S11448   7.044  12.135  12.048  0.0578  0.2157 -0.3007
 4645S        S11449  12.285   0.382  26.485 -0.0545  0.0948 -0.1277
 4646S        S11450   6.469   6.489  18.721 -0.5054 -0.0626 -0.1621
 4647S        S11451   3.295  12.050  30.838 -0.1244  0.4899  0.1174
 4648S        S11452  12.076   7.600  16.203  0.5238 -0.1604  0.0099
 4649S        S11453   9.878   4.422  20.508  0.1512 -0.0486  0.0159
 4650S        S11454   9.391   2.394  28.126  0.2164  0.3869  0.0760
 4651S        S11455  10.166   5.872  11.540 -0.0742 -0.6022 -0.0884
 4652S        S11456   3.645   2.117  20.598  0.3311  0.1319  0.0968
 4653S        S11457   0.985  10.773  13.509 -0.1362 -0.2754  0.5003
 4654S        S11458   0.082   5.077  42.410  0.0485 -0.1348  0.1130
 4655S        S11459   9.023   0.762  25.625 -0.2147  0.1098  0.0809
 4656S        S11460   3.908  12.321  27.636  0.0798 -0.1697  0.3321
 4657S        S11461   4.960   6.836  17.957  0.0918 -0.2228  0.1201
 4658S        S11462   0.022   7.307  13.973  0.2355 -0.2107 -0.0157
 4659S        S11463   4.025   6.393  36.940  0.5052 -0.1150  0.1160
 4660S        S11464   3.255   5.531  15.973 -0.1882 -0.0760  0.3229
 4661S        S11465   3.104   8.751  24.432 -0.3224  0.3214 -0.0763
 4662S        S11466   5.821   8.969  27.815 -0.0997 -0.4198  0.2828
 4663S        S11467  10.772  11.726  27.321  0.0299 -0.0158 -0.0747
 4664S        S11468   3.983   2.316  21.698 -0.5361 -0.3539 -0.0445
 4665S        S11469   6.942   9.182  15.472  0.0726  0.1311 -0.1018
 4666S        S11470   5.171  12.273  26.515 -0.1061 -0.1334  0.2580
 4667S        S11471  10.391   7.512  28.843 -0.2265 -0.2891 -0.2006
 4668S        S11472   0.638  11.851  29.866  0.1057 -0.1185  0.2105
 4669S        S11473   2.229   7.829  12.569  0.0181  0.2019  0.4448
 4670S        S11474   9.964   5.965  25.758  0.2884 -0.0174 -0.1588
 4671S        S11475   5.165   1.016  13.136 -0.0055  0.6355 -0.0922
 4672S        S11476   1.598   0.686  17.754 -0.3362 -0.3345 -0.4297
 4673S        S11477   6.166   3.434  28.932 -0.2884  0.2326  0.2609
 4674S        S11478  12.133  10.182  20.462 -0.1673 -0.2202 -0.2481
 4675S        S11479   9.729   4.459  28.377 -0.5581 -0.0407  0.2218
 4676S        S11480   6.385  11.565  29.142  0.6795 -0.2731 -0.2306
 4677S        S11481   2.807   4.015  15.145 -0.1743 -0.2801  0.2195
 4678S        S11482   2.247   1.122  28.105 -0.6963 -0.1021  0.3277
 4679S        S11483   9.434  10.154  18.236  0.3354  0.4034  0.6696
 4680S        S11484   2.441   8.593  25.270 -0.2685  0.7142 -0.0866
 4681S        S11485   4.203   3.133  30.176 -0.1815 -0.2210  0.1618
 4682S        S11486   2.897   3.689  22.698 -0.1387 -0.0828 -0.5410
 4683S        S11487   8.488   7.805  23.031  0.1859  0.7273  0.2678
 4684S        S11488   3.486   9.214  28.509  0.0231 -0.1715  0.0467
 4685S        S11489   5.606  10.838  15.266 -0.1049  0.0523  0.0073
 4686S        S11490   7.900   3.591  23.349  0.0194  0.1573 -0.2623
 4687S        S11491   1.762   5.006  28.722 -0.2489 -0.1723  0.1584
 4688S        S11492   0.938   0.157  24.356  0.4254 -0.1174  0.3103
 4689S        S11493  11.881   8.394  11.297  0.1230 -0.2593 -0.3963
 4690S        S11494   2.288   0.469  12.822 -0.2055  0.2196 -0.2117
 4691S        S11495   8.016   5.041  24.685  0.5112 -0.4523 -0.3084
 4692S        S11496   0.433   8.399  13.228  0.0891 -0.0545 -0.1059
 4693S        S11497   8.715   2.411  18.629 -0.5359 -0.2163 -0.3506
 4694S        S11498   2.101  10.151  27.768  0.6845  0.0567  0.0200
 4695S        S11499   5.954   1.737  24.102  0.0322  0.5830  0.1449
 4696S        S11500  10.744   1.528  26.422  0.2263 -0.1087 -0.3575
 4697S        S11501   4.045  10.430  11.444 -0.4518  0.1775  0.0195
 4698S        S11502   9.280   6.386  29.663 -0.5126  0.3928 -0.5792
 4699S        S11503   4.957   5.370  17.444 -0.1925 -0.3196  0.2726
 4700S        S11504   2.063  11.674  30.229  0.2113 -0.1286  0.0351
 4701S        S11505   7.165   4.953  21.610  0.0844  0.0523 -0.0330
 4702S        S11506   5.257   8.553  27.166  0.0263 -0.0064  0.3837
 4703S        S11507   2.663  10.585  23.796 -0.0574 -0.2523  0.3516
 4704S        S11508   5.609  10.876  23.499  0.0893 -0.2104 -0.1207
 4705S        S11509   5.268   6.123  28.230 -0.2604 -0.2397 -0.2765
 4706S        S11510  11.232   5.584  25.077 -0.5109  0.6407  0.2641
 4707S        S11511   4.683   7.198  11.610 -0.0442  0.0154  0.0301
 4708S        S11512   9.060   6.841  16.073 -0.4375 -0.1929 -0.3879
 4709S        S11513   6.491   0.606  30.771  0.1026 -0.1210  0.5745
 4710S        S11514   3.583  10.561  18.449  0.2534 -0.1382 -0.2929
 4711S        S11515   4.760   8.610  19.774  0.2927 -0.0709  0.1004
 4712S        S11516   0.366   3.012  29.881 -0.1604 -0.0932 -0.0463
 4713S        S11517   3.972  12.360  17.651 -0.2544 -0.2354  0.1764
 4714S        S11518  10.985   1.108  28.043 -0.0986 -0.6258  0.8236
 4715S        S11519  10.422   3.551  26.417 -1.0792  0.1675 -0.3738
 4716S        S11520   5.163   1.310  20.145  0.2066  0.3569  0.0217
 4717S        S11521   5.322   7.459  21.311  0.0741  0.2477 -0.1385
 4718S        S11522  10.948  11.763  13.867 -0.4571  0.4953 -0.0903
 4719S        S11523   1.792  10.391  18.561 -0.3450 -0.2754  0.3028
 4720S        S11524   1.328  12.143  11.591  0.0964 -0.2160  0.0384
 4721S        S11525  10.128   8.252  31.704  0.6340 -0.0304 -0.3533
 4722S        S11526   9.401  10.170  27.347  0.5144  0.1531 -0.3091
 4723S        S11527  11.028   0.857  21.098 -0.3168 -0.6668 -0.1430
 4724S        S11528   9.788   7.074  18.970  0.3417  0.2982 -0.0660
 4725S        S11529   9.678   5.572  18.744  0.1591 -0.1363  0.1625
 4726S        S11530   6.564   4.691  22.609  0.2415  0.3484  0.0779
 4727S        S11531   3.588   2.176  11.892 -0.2177 -0.0928  0.6713
 4728S        S11532  11.546   0.435  25.840 -0.6254  0.2260 -0.1593
 4729S        S11533   8.807   2.480  19.658 -0.4979  0.4673  0.0470
 4730S        S11534   5.557  11.794  15.565  0.2822  0.0979 -0.1306
 4731S        S11535   0.936   7.870  25.914  0.1645 -0.9540 -0.1524
 4732S        S11536   4.463   7.421  19.117 -0.2662  0.3156  0.5462
 4733S        S11537   2.109   7.447  19.419  0.0713  0.0975  0.0030
 4734S        S11538  10.405   7.521  36.967 -0.6969  0.2832  0.2549
 4735S        S11539   3.547   5.026  24.335  0.2699 -0.1801  0.8493
 4736S        S11540   6.583   7.524  31.103 -0.2591  0.2108 -0.2116
 4737S        S11541   9.664   1.771  30.290 -0.0552  0.3741  0.2553
 4738S        S11542  11.142   1.410  22.608  0.0443  0.6267 -0.3234
 4739S        S11543   6.390  12.259  14.678 -0.3311 -0.2230 -0.0204
 4740S        S11544   1.986   3.475  25.722  0.5420 -0.3259  0.2528
 4741S        S11545   4.147  11.986  22.219 -0.6233 -0.2355 -0.3789
 4742S        S11546   5.404   8.323  28.377 -0.3452 -0.0245  0.2519
 4743S        S11547  12.348   8.360  11.763  0.1195 -0.2437  0.3946
 4744S        S11548  11.309  12.008  24.708 -0.4247  0.0057  0.2852
 4745S        S11549   2.563   7.159  28.869 -0.5743 -0.0892 -0.2151
 4746S        S11550  10.246   9.163  12.237 -0.6342  0.4826  0.3271
 4747S        S11551   2.051   9.275  24.583 -0.7205  0.1177 -0.4419
 4748S        S11552   0.913   9.752  10.825  0.5057 -0.3147 -0.0702
 4749S        S11553   1.847   0.979  23.778 -0.3274 -0.7069  0.2476
 4750S        S11554   6.407   3.286  27.034 -0.2055  0.1582 -0.0678
 4751S        S11555  11.577   6.029  21.172  0.2852 -0.3728 -0.0435
 4752S        S11556  10.835   9.403  18.256  0.1824  0.0387  0.2279
 4753S        S11557   8.862   6.334  26.507  0.0897 -0.2167  0.1460
 4754S        S11558   1.957   5.805  11.772 -0.1991  0.1256 -0.1226
 4755S        S11559   5.383   5.427  13.463 -0.5504  0.1019  0.2722
 4756S        S11560   6.951   4.194  21.132 -0.4672  0.1260 -0.0646
 4757S        S11561   2.048   7.130  29.075 -0.0369  0.3679  0.2943
 4758S        S11562   1.226   8.380  31.316 -0.3072 -0.1881 -0.2952
 4759S        S11563   2.849  11.127  11.697  0.1628 -0.0229  0.0926
 4760S        S11564   8.804  11.691  17.640  0.2164 -0.0904 -0.2243
 4761S        S11565   6.647  10.924  30.671  0.2953 -0.0147  0.2731
 4762S        S11566   0.736   5.825  19.753 -0.0694  0.3619  0.4196
 4763S        S11567   5.801  10.243  13.970  0.2122 -0.1461 -0.4356
 4764S        S11568   7.637   7.585  11.661 -0.3340  0.5127  0.3239
 4765S        S11569   2.666   8.668  22.957 -0.5122 -0.1102 -0.1565
 4766S        S11570   6.582   6.120  18.326 -0.2582  0.1007  0.4748
 4767S        S11571   3.775  11.168  10.023  0.0503  0.1177 -0.0119
 4768S        S11572   5.748   6.019  28.214 -0.0040 -0.3917 -0.0774
 4769S        S11573   3.856   8.337  25.037 -0.5195 -0.1145 -0.2282
 4770S        S11574   1.763   4.007  12.440  0.3363  0.0716 -0.0603
 4771S        S11575   8.288   0.688  11.675  0.3704 -0.0769  0.6400
 4772S        S11576   8.591   5.763  12.142  0.1201 -0.3608  0.0161
 4773S        S11577  10.428   5.811  15.942 -0.1978 -0.1613  0.2009
 4774S        S11578   6.662   0.765  11.620  0.1728 -0.2201 -0.1980
 4775S        S11579   1.462   5.906  14.620 -0.2861 -0.5303  0.3023
 4776S        S11580   0.370  11.738  24.860  0.1367  0.1276  0.0588
 4777S        S11581   2.488   6.078  28.713  0.4312  0.1223 -0.6317
 4778S        S11582   8.375   2.324  22.291  0.2315  0.3155 -0.2593
 4779S        S11583   4.310  10.112  15.619  0.1831  0.2865  0.4207
 4780S        S11584   3.726   9.448  18.246  0.2079  0.0754  0.0370
 4781S        S11585   4.155   3.694  18.419  0.2430 -0.2933  0.2251
 4782S        S11586  11.798  11.439  21.392  0.3774 -0.1348 -0.0232
 4783S        S11587   5.277   7.320  26.804  0.5742 -0.1482  0.6838
 4784S        S11588   5.984  11.333  30.854 -0.9077  0.5527  0.1138
 4785S        S11589   8.545   3.870  12.623  0.4341  0.5146 -0.2855
 4786S        S11590  10.238   4.215  27.118  0.0398 -0.2882 -0.0152
 4787S        S11591   4.121   2.057  24.258  0.1786 -0.0711 -0.6907
 4788S        S11592   3.080   0.544  22.820 -0.4114 -0.4391  0.5177
 4789S        S11593   9.152   2.640  14.432  0.0666  0.2019 -0.4632
 4790S        S11594   3.835   7.824  12.851  0.1651 -0.4988  0.1504
 4791S        S11595   2.886   9.196  31.273  0.5166 -0.3711 -0.0954
 4792S        S11596   2.130   5.807  30.832  0.2683 -0.1118  0.4682
 4793S        S11597   3.329  10.684  12.621  0.3607  0.2631  0.2455
 4794S        S11598   7.172   9.425  28.695  0.6369  0.1178  0.3832
 4795S        S11599   5.933   2.379  30.708  0.3169 -0.1750 -0.4492
 4796S        S11600   7.712   0.927  25.769 -0.0839  0.2233  0.0273
 4797S        S11601   0.840   3.134  28.175 -0.3510  0.1702  0.5281
 4798S        S11602   0.501   5.420  16.166 -0.5663  0.2316  0.0063
 4799S        S11603   5.898  10.851  25.030  0.2550 -0.1712 -0.4406
 4800S        S11604   1.284   4.787  26.747  0.4831  0.2648  0.0407
 4801S        S11605   6.284   0.730  16.573 -0.0680  0.0084 -0.0011
 4802S        S11606  10.086   9.798  20.787  0.0623  0.0912 -0.1185
 4803S        S11607   3.312   7.114  18.201 -0.2916 -0.0052  0.0361
 4804S        S11608   8.933  11.105  26.732 -0.3140 -0.0894 -0.3166
 4805S        S11609  12.332   0.369  20.852  0.1580 -0.5491  0.1847
 4806S        S11610   5.695   1.826  15.780  0.1048  0.2996  0.5117
 4807S        S11611   4.492  12.087  24.014 -0.5159 -0.0271 -0.3733
 4808S        S11612   9.241   8.901  26.981  0.0241 -0.4797  0.1735
 4809S        S11613   5.301   7.945  19.151  0.2720  0.2859  0.0320
 4810S        S11614  12.357   8.344  18.539 -0.4067  0.4183  0.3740
 4811S        S11615  10.831   7.717  16.810  0.0970 -0.0458 -0.0378
 4812S        S11616   4.433   1.044  30.766 -0.0226  0.5338 -0.4981
 4813S        S11617   4.923   2.005  22.176 -0.3982  0.2450  0.0581
 4814S        S11618   9.048   2.685  25.317  0.1073 -0.0945  0.1795
 4815S        S11619  11.906   8.185  19.484  0.3781 -0.0309  0.1343
 4816S        S11620   2.228  10.890  12.267 -0.1866  0.4638 -0.1061
 4817S        S11621   2.057   7.775  32.130  0.0881  0.0621 -0.3724
 4818S        S11622   4.700   6.456  18.530  0.0911 -0.3885  0.1862
 4819S        S11623   8.631  10.787  27.033  0.4053 -0.2569 -0.6770
 4820S        S11624   4.240   9.820  23.148  0.1038  0.6896  0.3214
 4821S        S11625  10.598   1.225  14.483  0.0150 -0.4870  0.0283
 4822S        S11626   3.921   9.918  22.483  0.9212  0.7560 -0.0597
 4823S        S11627   4.165   1.021  11.471  0.2753 -0.2669 -0.1133
 4824S        S11628  10.405   9.224  25.930 -0.1469  0.1661 -0.0327
 4825S        S11629   4.595   7.405  19.699  0.3254 -0.2338 -0.5420
 4826S        S11630  12.086   2.321  12.091 -0.4866  0.2686  0.4917
 4827S        S11631   9.261   7.666  20.348  0.2688 -0.4433 -0.0166
 4828S        S11632   7.995   5.039  28.349 -0.0403  0.2811  0.3914
 4829S        S11633   6.291  12.198  24.906  0.6054  0.3326  0.5815
 4830S        S11634   8.775   8.662  29.011  0.0406  0.3410 -0.2837
 4831S        S11635   9.905   4.839  24.080 -0.4213  0.5623 -0.5592
 4832S        S11636   4.243   3.839  26.674 -0.5136  0.2494 -0.1507
 4833S        S11637   3.049   6.442  17.188  0.0804  0.0654 -0.1916
 4834S        S11638  10.642   5.527  20.320  0.0716  0.5454  0.2110
 4835S        S11639   0.034   3.325  12.180 -0.1118 -0.1056  0.2503
 4836S        S11640   4.769  12.090  13.685  0.1023  0.2330  0.0068
 4837S        S11641   2.390   6.818  17.190 -0.0208  0.3320 -0.3086
 4838S        S11642   5.607   1.428  16.783 -0.4514 -0.1484  0.1341
 4839S        S11643   5.288   4.768  25.488 -0.3271  0.1185 -0.0358
 4840S        S11644   4.025   7.350  15.182 -0.1587  0.0747  0.4520
 4841S        S11645   3.797   4.947  29.459  0.6194 -0.2852 -0.3850
 4842S        S11646  10.158   2.254  26.080 -0.2939 -0.1765  0.0986
 4843S        S11647   7.768   9.343  19.870 -0.2153 -0.2779  0.3239
 4844S        S11648   7.423  10.371  20.222 -0.3952 -0.0045  0.0671
 4845S        S11649   8.366   3.460  31.787 -0.4370  0.0524 -0.3289
 4846S        S11650   7.758   4.142  17.808 -0.0095 -0.0803  0.1285
 4847S        S11651  10.916   0.199  17.664  0.4071 -0.1644  0.1823
 4848S        S11652   9.315   5.164  31.627 -0.3954 -0.3527 -0.1644
 4849S        S11653   9.727   7.501  24.293 -0.7158  0.1621 -0.0702
 4850S        S11654   5.206   0.513  23.603 -0.0156  0.2339 -0.2736
 4851S        S11655   7.315  11.152  14.063  0.2410  0.2366  0.1055
 4852S        S11656  11.155   8.912  19.403  0.0546 -0.4559 -0.2853
 4853S        S11657   0.617  11.763  16.276 -0.4563 -0.5578 -0.0332
 4854S        S11658   6.165   2.630  15.968  0.2888  0.3356 -0.1293
 4855S        S11659   5.106   1.946  13.872 -0.1251  0.0234  0.2655
 4856S        S11660   1.771   8.208  21.473  0.9507 -0.3167  0.0197
 4857S        S11661   5.868   4.691  20.067 -0.0327  0.2298  0.6097
 4858S        S11662  10.722   1.931  28.372 -0.7043 -0.4686  0.1903
 4859S        S11663   0.961   6.573  32.363  0.2514 -0.3690  0.4179
 4860S        S11664   5.218   3.518  20.207 -0.0390 -0.0710  0.5693
 4861S        S11665   9.534   1.544  17.295  0.2167  0.1237  0.1660
 4862S        S11666   3.827   8.612  27.917 -0.1550 -0.3721 -0.2904
 4863S        S11667   7.253   9.411  23.978  0.3708  0.2334  0.3127
 4864S        S11668   6.371  11.833  13.454  0.8363 -0.0120  0.0813
 4865S        S11669   4.007   0.494   5.291  0.1398  0.1026  0.2331
 4866S        S11670   5.791   2.276  25.862  0.0848  0.2531  0.5621
 4867S        S11671   2.172   6.749  32.014 -0.1228 -0.5953 -0.1495
 4868S        S11672   3.380   8.910  27.668  0.1960  0.6867 -0.4325
 4869S        S11673   4.408   7.024  22.144 -0.4956 -0.5262 -0.0600
 4870S        S11674   9.285  11.479  21.422  0.4073  0.1628  0.3343
 4871S        S11675   9.605   6.452  13.462 -0.0492  0.0753 -0.3158
 4872S        S11676   3.521   9.380  19.848  0.3269 -0.4747  0.0300
 4873S        S11677  11.865   9.615  21.858  0.1062 -0.3696 -0.1814
 4874S        S11678   9.373   0.219  21.594  0.1965  0.2285  0.0720
 4875S        S11679   3.064   1.890  28.142 -0.4627  0.4856 -0.2690
 4876S        S11680   6.172   5.161  17.560  0.4022  0.1299 -0.0195
 4877S        S11681   5.413  10.245  22.141 -0.0495 -0.6136  0.2744
 4878S        S11682  10.452   7.808  15.513  0.0776 -0.3115 -0.0876
 4879S        S11683   5.715  11.638  22.627 -0.1489  0.0334  0.1824
 4880S        S11684   7.401   2.844  26.460 -0.3726 -0.2749  0.0473
 4881S        S11685   8.427   3.504  27.682  0.2423  0.4055  0.5061
 4882S        S11686   7.276   9.168  28.244 -0.2245  0.0735  0.1502
 4883S        S11687   6.463   8.072  24.993 -0.3640 -0.4806 -0.2457
 4884S        S11688   7.940   8.309  24.438 -0.1009 -0.1843  0.4742
 4885S        S11689   4.540   6.956  18.856 -0.3274 -0.1179  0.1484
 4886S        S11690   7.279   8.821  27.931  0.0773  0.0296  0.0820
 4887S        S11691   6.694   8.843  25.769 -0.0429 -0.0900 -0.1188
 4888S        S11692   1.777   0.791  18.359 -0.1980 -0.1840  0.1952
 4889S        S11693   4.672   1.986  18.275 -0.5481 -0.4179  0.3851
 4890S        S11694   7.522   0.791  16.571 -0.9440  0.6056 -0.1644
 4891S        S11695   8.219  11.799  20.348  0.3801 -0.1199  0.2435
 4892S        S11696   6.333   6.440  29.660  0.2056 -0.3322 -0.3516
 4893S        S11697   8.179  10.654  21.804  0.2820  0.1524  0.2938
 4894S        S11698  11.924   1.502  28.900  0.6641  0.1212  0.4698
 4895S        S11699   1.170   6.950  25.351 -0.3198  0.0515  0.4932
 4896S        S11700   4.583   0.685  31.117 -0.5647  0.4986  0.0530
 4897S        S11701   9.182  10.478  17.978 -0.1898  0.5563  0.1627
 4898S        S11702  11.028   8.631  16.681  0.4290  0.0337 -0.2925
 4899S        S11703  10.866   2.940  26.330 -0.6107  0.0731  0.3546
 4900S        S11704   7.589   5.274  28.048  0.4326 -0.0617  0.6176
 4901S        S11705   0.546   9.673  20.537 -0.1056  0.3457 -0.3404
 4902S        S11706   5.802   5.162  17.861 -0.3383 -0.1745  0.1155
 4903S        S11707  10.073   4.825  28.114  0.5834  0.4240  0.0920
 4904S        S11708   7.891   2.032  10.774 -0.1255  0.3480  0.1308
 4905S        S11709  10.511   3.520  28.840  0.2077 -0.0431  0.6686
 4906S        S11710   6.241   3.722  29.335  0.4597  0.6581  0.0728
 4907S        S11711   8.920   4.419  20.882  0.2499  0.1814  0.1265
 4908S        S11712  10.032   2.526  28.316  0.1654  0.2103 -0.2063
 4909S        S11713   8.321   1.292  13.306  0.4389  0.0437 -0.0109
 4910S        S11714   6.508   9.868  28.786  0.3000  0.1081  0.5963
 4911S        S11715   7.261   5.844  30.052 -0.0181  0.4538 -0.4803
 4912S        S11716   5.400   2.000  14.336 -0.5621  0.0209  0.0308
 4913S        S11717   5.070   1.078  22.887  0.2570  0.2253 -0.1340
 4914S        S11718   2.550   7.689  28.514 -0.6054  0.1940 -0.2415
 4915S        S11719   6.359   3.929  11.128  0.3240  0.4047 -0.1110
 4916S        S11720   5.019   1.408  24.295 -0.0237  0.5853  0.4128
 4917S        S11721   5.997  10.543  32.720 -0.5563 -0.0928 -0.1207
 4918S        S11722   9.049   8.874  25.884  0.1872 -0.7266 -0.1280
 4919S        S11723  11.195  11.799  26.233 -0.3449  0.0077  0.1628
 4920S        S11724  12.090   6.282  20.116  0.0560 -0.0498  0.1972
 4921S        S11725  12.154   8.826  26.834  0.2325 -0.0439 -0.4326
 4922S        S11726  10.470   2.489  14.651  0.0339  0.1273  0.6786
 4923S        S11727   1.599   5.997  19.901  0.3834  0.1898 -0.2620
 4924S        S11728   1.660   9.777  27.174  0.0171 -0.2503  0.4273
 4925S        S11729   0.093   2.599  18.186 -0.3070 -0.0574  0.0585
 4926S        S11730   9.970   3.947  16.916 -0.5702  0.2145 -0.1392
 4927S        S11731   4.782   1.703  18.912 -0.7646  0.0628 -0.1524
 4928S        S11732   9.811   4.384  25.844 -0.1660  0.1571 -0.3916
 4929S        S11733   5.591   6.273  12.445 -0.2035 -0.5973  0.4602
 4930S        S11734   3.859   8.571  20.030 -0.1536  0.1731 -0.0835
 4931S        S11735   7.759   8.142  20.860  0.2911  0.3555  0.1645
 4932S        S11736  11.614  10.160  19.660  0.2740  0.1912 -0.0526
 4933S        S11737   0.429   2.101  28.617  0.0605  0.2675 -0.6694
 4934S        S11738  11.183   2.037  19.317  0.2407 -0.2611 -0.2977
 4935S        S11739   3.882   7.393   5.201  0.0637  0.3663  0.4006
 4936S        S11740   9.993   8.324  21.627  0.1219 -0.1116  0.0645
 4937S        S11741   1.866   7.381  25.540 -0.3759  0.3448 -0.4377
 4938S        S11742   6.560   6.722  27.400 -0.1854  0.5581 -0.3773
 4939S        S11743  10.805   9.769  25.149 -0.1663 -0.2053 -0.1383
 4940S        S11744   8.039   0.566  12.229 -0.4153  0.1361 -0.1643
 4941S        S11745   6.754   1.448  28.590 -0.4438  0.2338 -0.1632
 4942S        S11746   5.447   4.377  18.942  0.4740  0.2684  0.0317
 4943S        S11747   7.625   7.417  26.379  0.1286 -0.3694 -0.4023
 4944S        S11748   1.571  10.873  18.297  0.0449 -0.1769 -0.1354
 4945S        S11749  11.927   2.789  13.029  0.2343 -0.2441 -0.1732
 4946S        S11750  11.478   6.703  12.090 -0.0684 -0.2850  0.2646
 4947S        S11751   9.256   2.440  17.558 -0.1807  0.1268 -0.0587
 4948S        S11752  10.279   6.861  13.591 -0.3314 -0.2438  0.3601
 4949S        S11753   8.473  10.352  32.361  0.1501 -0.6920  0.4338
 4950S        S11754  10.311  10.271  27.985 -0.0405  0.6191  0.0494
 4951S        S11755   7.495   3.381  27.387  0.0915 -0.1395 -0.3192
 4952S        S11756   7.110   2.128   9.496  0.1492  0.0321 -0.2468
 4953S        S11757  11.709   6.088  22.208  0.3660 -0.3346 -0.0917
 4954S        S11758   8.908   6.671  15.127 -0.0727  0.0516  0.1957
 4955S        S11759  11.979   0.496  25.482 -0.0145  0.1657  0.2858
 4956S        S11760   7.546   0.256  16.359 -0.4838 -0.4713 -0.3162
 4957S        S11761   3.596   7.739  13.736 -0.0060 -0.1173  0.0019
 4958S        S11762   8.967   7.622  26.176 -0.3275 -0.3468 -0.2865
 4959S        S11763   2.359   9.796  20.627 -0.4396  0.6404 -0.3617
 4960S        S11764   4.107  11.066  15.061 -0.0358 -0.2633  0.6202
 4961S        S11765   9.763   7.616  14.011 -0.5811  0.3585 -0.1375
 4962S        S11766   9.770  11.937  12.407  0.4631  0.2713  0.0004
 4963S        S11767   4.289   1.096  18.621 -0.2654  0.1054 -0.2009
 4964S        S11768   4.376   8.596  21.179 -0.3537  0.1452 -0.5277
 4965S        S11769   4.815   5.907  18.383  0.1812 -0.3904  0.2110
 4966S        S11770   3.033   4.237  27.747 -0.1695  0.0153 -0.2696
 4967S        S11771  10.113   6.865  29.432  0.0571 -0.0290 -0.1444
 4968S        S11772  11.085   3.880  25.329 -0.3362 -0.3909  0.3886
 4969S        S11773   2.115   8.701  13.277  0.2370  0.5049  0.2194
 4970S        S11774   2.910  12.029  12.833  0.0688  0.2761 -0.5547
 4971S        S11775  10.783   7.400  25.949 -0.1680  0.3959 -0.6886
 4972S        S11776   4.116   5.748  12.738 -0.1180  0.2708 -0.6763
 4973S        S11777  11.035   8.978  26.968 -0.3465 -0.2264  0.3028
 4974S        S11778   5.888   2.956  28.009 -0.3720  0.1660  0.3194
 4975S        S11779   7.321   6.731  29.177  0.1641 -0.3712 -0.8269
 4976S        S11780  12.274   6.206  24.489  0.1521  0.1106 -0.6803
 4977S        S11781   8.470   6.701  23.559 -0.1612  0.2044  0.5757
 4978S        S11782   1.275  11.168  14.820  0.0501 -0.0767 -0.3557
 4979S        S11783   8.513   7.230  13.335 -0.1361 -0.0228  0.0380
 4980S        S11784   0.435   3.043  13.167 -0.3012 -0.1512 -0.1983
 4981S        S11785  10.003   8.543  26.718 -0.1232 -0.0246  0.6973
 4982S        S11786   9.141   4.287  31.386 -0.0943  0.1822 -0.1682
 4983S        S11787   1.597   4.541  22.628 -0.4960  0.3883  0.2062
 4984S        S11788   5.734   2.699  26.916 -0.0001 -0.1848 -0.7979
 4985S        S11789   8.928   2.932  29.824 -0.0112  0.5820  0.2640
 4986S        S11790   0.784   6.938  20.724  0.1198 -0.8637 -0.1572
 4987S        S11791   7.838   9.123  23.445 -0.0191 -0.0032  0.3010
 4988S        S11792   1.525   9.721  30.553  0.0178 -0.3220  0.2757
 4989S        S11793  11.255  11.316  22.414  0.2887  0.3709 -0.4569
 4990S        S11794   7.086   1.665  15.627 -0.2640  0.1282 -0.2281
 4991S        S11795   2.603  11.660  24.501 -0.4968  0.2165  0.2170
 4992S        S11796   5.140   1.658  15.474  0.1315  0.7134 -0.0770
 4993S        S11797   0.496   9.149  30.769  0.4628 -0.4251  0.6704
 4994S        S11798   9.041   2.510  15.449  0.3276  0.1649 -0.4994
 4995S        S11799   4.971   1.598  17.149 -0.0694 -0.2537 -0.0849
 4996S        S11800  11.097   5.883  14.614  0.5927  0.0798  0.3808
 4997S        S11801  10.357   8.009   8.534  0.3335  0.3610  0.3004
 4998S        S11802   7.488   8.730  12.739  0.2821 -0.1869  0.1333
 4999S        S11803   0.265   0.034  14.315  0.1452  0.0279  0.0149
 5000S        S11804   3.171  10.655   0.613 -0.0065 -0.0202  0.0224
 5001S        S11805   5.573   1.644  11.771  0.1932 -0.5104 -0.8913
 5002S        S11806  11.275   2.133  15.902 -0.4406  0.1624  0.0755
 5003S        S11807  11.031   7.849  27.270  0.1447 -0.1467  0.1890
 5004S        S11808   6.126   4.973  23.136 -0.7237 -0.0767  0.2452
 5005S        S11809  11.253   5.671  11.178  0.2637 -0.1705 -0.1597
 5006S        S11810   8.487   7.237  26.830 -0.4607 -0.0586 -0.2169
 5007S        S11811   4.622   5.316  18.298 -0.1362  0.1462 -0.0965
 5008S        S11812   5.454  11.970  26.148 -0.1871 -0.2664 -0.3920
 5009S        S11813   8.986   0.756  25.001 -0.0908  0.1501 -0.3348
 5010S        S11814   4.082   1.787  24.690  0.2560  0.0879  0.1976
 5011S        S11815   0.849   4.879  26.998  0.3725  0.1211  0.2441
 5012S        S11816   9.942  12.144  16.624  0.0217  0.4630 -0.3639
 5013S        S11817   2.671  10.224  21.303  0.3482 -0.4214  0.9668
 5014S        S11818  10.036   6.562  19.864 -0.2276  0.0021  0.1945
 5015S        S11819   2.312   7.844  20.795  0.4497 -0.5850  0.4695
 5016S        S11820  11.449  10.648  17.990  0.2135 -0.2554  0.0218
 5017S        S11821   0.024   5.461  16.619 -0.1410  0.2520  0.5431
 5018S        S11822   5.572  10.663  30.477 -0.3723  0.3682  0.6058
 5019S        S11823   8.073  12.342  22.925  0.0800  0.2646 -0.1446
 5020S        S11824   1.152  10.168  29.592 -0.2619 -0.0466 -0.1591
 5021S        S11825  10.816   2.036  11.719 -0.0280 -0.2738  0.0003
 5022S        S11826   3.153   1.093  24.197 -0.2010  0.1975 -0.1807
 5023S        S11827   7.640   4.897  18.781 -0.5836 -0.1868  0.0939
 5024S        S11828  12.089  10.723  16.279 -0.0410  0.0079  0.0472
 5025S        S11829   7.640   3.524  20.722  0.1859  0.0870 -0.1079
 5026S        S11830   8.765   7.286  24.258  0.0192  0.1242  0.2827
 5027S        S11831   4.397   9.854   9.455 -0.6865  0.1480  0.2654
 5028S        S11832   7.025   4.285  23.974 -0.0830  0.1389  0.2766
 5029S        S11833   7.684  12.094  18.675  0.4808 -0.1658 -0.6365
 5030S        S11834  11.959   4.125  15.620  0.3195 -0.3114 -0.1353
 5031S        S11835   4.504   9.902  31.288 -0.6424 -0.4378  0.0345
 5032S        S11836   7.902   0.402  12.996  0.0596  0.7406 -0.5040
 5033S        S11837  10.651   8.884  28.605 -0.1144 -0.0295 -0.4743
 5034S        S11838   7.055   8.938  21.027  0.3141 -0.1868 -0.0886
 5035S        S11839  10.418  12.309   0.438 -0.2006 -0.1474  0.3968
 5036S        S11840   9.300   6.488  24.007  0.1592  0.3241 -0.2119
 5037S        S11841   3.010   1.358  13.644 -0.4598  0.3348 -0.5914
 5038S        S11842  11.703  10.568  32.254  0.3418 -0.2080 -0.1815
 5039S        S11843   4.061   7.666  26.461 -0.0679  0.9540 -0.1712
 5040S        S11844   4.015   1.166  24.369  0.0170 -0.1299 -0.6110
 5041S        S11845  12.362   7.850  15.823 -0.1843 -0.3708 -0.0763
 5042S        S11846   1.310   0.573  18.214 -0.0072 -0.0742 -0.0696
 5043S        S11847  11.750   1.986  27.768  0.4022  0.1382  0.0615
 5044S        S11848   1.438   3.638  20.778  0.2445 -0.2102 -0.0210
 5045S        S11849  10.958   3.924  30.326 -0.4844  0.4504 -0.4854
 5046S        S11850  12.284   8.476  13.987  0.2221  0.0789  0.1330
 5047S        S11851  11.869   8.162  22.919  0.7054 -0.6326 -0.1142
 5048S        S11852   1.792  10.955  25.948  0.2573 -0.0065  0.2873
 5049S        S11853   1.002  11.470  19.634 -0.5467  0.0668  0.2415
 5050S        S11854  11.051   1.969  21.922 -0.0314  0.0129  0.1609
 5051S        S11855   3.539   5.876  13.409 -0.2243 -0.0393 -0.1499
 5052S        S11856  11.506   7.539  27.360  0.2519  0.6578  0.5784
 5053S        S11857   2.434   7.344  12.486  0.1006  0.0044 -0.4577
 5054S        S11858   6.047  11.202  28.245  0.5400  0.3375  0.3299
 5055S        S11859   3.938   7.898  16.254  0.2359 -0.1287  0.1773
 5056S        S11860   3.854   5.668  27.240 -0.7990  0.4832  0.0857
 5057S        S11861   1.469   0.509  30.490 -0.5760  0.0865 -0.1951
 5058S        S11862   8.969   5.247  31.206 -0.1642 -0.0739  0.0804
 5059S        S11863   6.272  11.532  21.816 -0.3151 -0.1510 -0.1271
 5060S        S11864   1.528   4.207  25.747 -0.0626  0.0152  0.2357
 5061S        S11865  11.679   9.278  18.066  0.3588  0.1809  0.0830
 5062S        S11866   3.327  10.444  29.702 -0.3414 -0.4387 -0.3067
 5063S        S11867   9.099   7.227  22.262 -0.2188  0.0539  0.2945
 5064S        S11868   2.229  11.469  23.094  0.1177 -0.1084 -0.3067
 5065S        S11869   7.798   4.464  13.146 -0.2243  0.1969 -0.1094
 5066S        S11870   6.528  11.097  16.415  0.0739 -0.3695  0.2656
 5067S        S11871   1.337  10.354  17.027  0.1605  0.5714  0.2145
 5068S        S11872   7.935  11.853  18.295 -0.3115  0.1070  0.3004
 5069S        S11873   6.907   5.633  23.057 -0.5500 -0.2850  0.2880
 5070S        S11874   6.208   3.163  19.640  0.2798 -0.3819  0.1769
 5071S        S11875   3.457   0.387  23.094 -0.4216 -0.0267 -0.7249
 5072S        S11876   8.434   6.008  13.686 -0.1264 -0.2898 -0.7892
 5073S        S11877   8.902   6.167  22.134 -0.1216  0.4210  0.5540
 5074S        S11878   3.573   4.303  17.878  0.7809  0.3981 -0.1589
 5075S        S11879   5.303   4.885  22.452  0.0963  0.0580 -0.6226
 5076S        S11880   7.996   9.972  12.507 -0.1052 -0.0747  0.1610
 5077S        S11881  10.254   9.920  19.429  0.2009  0.6383 -0.0060
 5078S        S11882   8.747   2.653  32.983 -0.2795  0.2018 -0.0211
 5079S        S11883   1.362   0.066  18.391 -0.5088 -0.4292  0.6173
 5080S        S11884   0.823   4.834  18.983 -0.2103 -0.3152  0.2010
 5081S        S11885   3.386   7.984  12.683  0.0994  0.0205  0.5346
 5082S        S11886   3.903   4.931  25.898 -0.4159 -0.3353  0.3088
 5083S        S11887   3.208   2.051  16.353 -0.1580  0.0448 -0.3750
 5084S        S11888   8.734   6.012  32.835 -0.1067 -0.7535  0.0569
 5085S        S11889   2.253  12.235  23.247  0.0946 -0.0682  0.2467
 5086S        S11890   4.052   5.976  13.192  0.2597 -0.1573 -0.3726
 5087S        S11891   9.813   3.970  29.455  0.2432  0.3341 -0.7881
 5088S        S11892   6.483   6.089  17.366 -0.1921 -0.0701 -0.1163
 5089S        S11893  12.016   7.496  29.500  0.1891 -0.4609 -0.2532
 5090S        S11894   3.843  12.166  25.264 -0.0871 -0.2135 -0.0692
 5091S        S11895   4.817   9.524  20.535  0.3452 -0.0360  0.4181
 5092S        S11896   0.590  11.881  13.819 -0.0867 -0.3809  0.4924
 5093S        S11897   5.555  12.006  23.726  0.4796 -0.1536 -0.3200
 5094S        S11898  11.251   7.098  20.669  0.1176 -0.0441  0.1505
 5095S        S11899   5.832   2.216  24.982 -0.0654  0.0688 -0.0452
 5096S        S11900   1.414   7.129  19.939  0.0778 -0.1517 -0.1179
 5097S        S11901   5.439   9.493  25.274 -0.0362  0.1937 -0.2618
 5098S        S11902   4.607  10.452  19.700  0.1058  0.0052  0.0663
 5099S        S11903   2.846   9.471  22.520  0.3021  0.2479 -0.5869
 5100S        S11904   8.314   6.337  12.044 -0.1468  0.6039  0.0665
 5101S        S11905   5.957   7.608  23.023 -0.0475  0.1412 -0.1208
 5102S        S11906   8.807   7.882  11.485  0.0093 -0.0753  0.0088
 5103S        S11907   1.304   8.350  28.065 -0.2083  0.1340 -0.3115
 5104S        S11908   0.343   8.178  20.225 -0.1283  0.4525  0.2146
 5105S        S11909   6.715  11.031  12.051 -0.4844 -0.2741 -0.1042
 5106S        S11910   7.840   3.686  15.548 -0.1150 -0.0426  0.5553
 5107S        S11911  10.932   8.661  24.024  0.4021 -0.0676  0.0493
 5108S        S11912   2.248   6.238  19.472  0.2004  0.0514  0.4319
 5109S        S11913  11.813   5.704  11.342 -0.0285  0.4499 -0.5983
 5110S        S11914   7.118  12.241  18.302 -0.3470 -0.0690 -0.0006
 5111S        S11915   3.517  11.989  23.783 -0.2084 -0.6193  0.1032
 5112S        S11916   0.752   4.516  14.651 -0.0948  0.1181  0.0903
 5113S        S11917   2.330  12.036  29.886 -0.1676  0.2186 -0.2252
 5114S        S11918   2.250   4.985  12.218 -0.4549 -0.1668 -0.2182
 5115S        S11919  10.373   1.766  15.622 -0.1737  0.1685 -0.3154
 5116S        S11920   4.204   3.918  19.182 -0.0912 -0.1054  0.0938
 5117S        S11921   2.865   2.490  15.079 -0.0113 -0.5006  0.0815
 5118S        S11922   0.730   6.547  28.656  0.3629  0.4758  0.1908
 5119S        S11923   2.921   7.571  13.360 -0.1091 -0.0876  0.3209
 5120S        S11924   7.200   0.774  19.350 -0.0916 -0.3957  0.0248
 5121S        S11925   9.443   5.007  31.184  0.0941  0.0014 -0.2309
 5122S        S11926  11.168   6.256  36.243  0.3746 -0.1016  0.2254
 5123S        S11927   6.882   9.654  17.510 -0.0983  0.4079 -0.2153
 5124S        S11928   6.406   1.135  28.252 -0.6614 -0.0174  0.4616
 5125S        S11929   3.315  10.850  19.558 -0.3278  0.3745  0.0538
 5126S        S11930   0.719  10.457  27.996 -0.1612  0.1897  0.2436
 5127S        S11931   8.951   4.883  25.654 -0.1057 -0.4135  0.2343
 5128S        S11932   7.063   6.220  11.391 -0.0905 -0.2448  0.1177
 5129S        S11933   5.739   7.451  15.914  0.2163 -0.0553  0.6359
 5130S        S11934   3.070   7.471  18.619 -0.4357  0.2561  0.0390
 5131S        S11935  11.205   6.514  14.549  0.0657  0.1180 -0.2762
 5132S        S11936   8.741   1.226  13.580 -0.0661  0.1919 -0.3046
 5133S        S11937   4.112  10.519  21.720  0.1054  0.3901 -0.1688
 5134S        S11938   9.845   8.264  29.381 -0.1925 -0.4535  0.2021
 5135S        S11939   9.259   5.334  27.488  0.5869 -0.4813  0.3929
 5136S        S11940   0.012  11.913  13.197  0.3521 -0.3211 -0.1865
 5137S        S11941   3.857   7.928  10.119 -0.1364 -0.3168  0.2946
 5138S        S11942   1.890   7.142  18.500  0.2627  0.0322  0.0062
 5139S        S11943   4.596   3.911  12.702  0.5165  0.4116  0.2324
 5140S        S11944   0.495  11.558  15.738 -0.0323 -0.2269  0.2903
 5141S        S11945   7.192   7.945  22.600 -0.2089 -0.3379 -0.1197
 5142S        S11946   1.541   9.136  14.363  0.4131 -0.0708  0.4437
 5143S        S11947   9.175   1.118  30.778  0.2155 -0.5367  0.3189
 5144S        S11948   8.753  10.634  24.484  0.4412 -0.8501 -0.3150
 5145S        S11949   6.344   6.816  22.392  0.3752 -0.7351  0.2012
 5146S        S11950   8.235   1.363  18.225 -0.2359  0.2783  0.1596
 5147S        S11951   4.103   2.322  19.152 -0.0604 -0.7978  0.2848
 5148S        S11952   2.919   4.033  22.293 -0.1236  0.3433  0.1526
 5149S        S11953   8.421   5.574  18.298 -0.2759  0.1614  0.6050
 5150S        S11954  11.874   5.812  12.544 -0.2226 -0.4944  0.1448
 5151S        S11955   6.609   4.378  25.336  0.0226  0.4228  0.2291
 5152S        S11956  10.864   8.872  25.337 -0.0040 -0.3228 -0.2941
 5153S        S11957  11.669   5.160  21.025 -0.5423  0.3896 -0.5480
 5154S        S11958   4.153   7.660   3.710 -0.3104  0.1805  0.0138
 5155S        S11959   7.017   9.910  23.558 -0.0396  0.2809  0.3158
 5156S        S11960   9.894   6.139  17.972  0.1910 -0.1811  0.0780
 5157S        S11961   6.668   6.896  22.747 -0.1731 -0.3285 -0.4254
 5158S        S11962  11.652   2.173  21.756  0.5005  0.2426 -0.4161
 5159S        S11963   6.594  10.431  14.139  0.1200 -0.4855 -0.5394
 5160S        S11964  10.518   3.530  24.842  0.2106 -0.4396 -0.0695
 5161S        S11965   3.372   8.696  17.085  0.0926 -0.0928  0.1030
 5162S        S11966   2.286   2.853  16.487  0.1966 -0.3022 -0.2948
 5163S        S11967   0.856   1.267  13.458  0.0888 -0.0578 -0.4923
 5164S        S11968   9.522   5.418  15.921 -0.0499  0.4209  0.0588
 5165S        S11969   6.779  10.293  28.000  0.2374 -0.2746  0.1266
 5166S        S11970   6.724   0.258  15.900  0.1002 -0.7673  0.9621
 5167S        S11971   4.108  10.069  30.928 -0.3430 -0.1570  0.3204
 5168S        S11972   5.942   5.153  22.504 -0.2199 -0.0051  0.0679
 5169S        S11973   4.285   8.145  12.253 -0.1215  0.3993  0.2720
 5170S        S11974  11.994   0.641   3.868 -0.1751 -0.2160  0.1083
 5171S        S11975   9.410   9.013  17.660 -0.2371 -0.8011  0.0814
 5172S        S11976   2.310   1.487  17.830  0.1672 -0.3316  0.1358
 5173S        S11977   6.210   2.595  13.860 -0.2486 -0.2308 -0.2921
 5174S        S11978   2.579   9.685  19.663  0.1718  0.0560 -0.0854
 5175S        S11979  10.824   2.870  15.905 -0.1242  0.4354 -0.6475
 5176S        S11980   6.724  10.353  26.424  0.2507  0.2012  0.6596
 5177S        S11981   9.484   8.703  12.502 -0.1731 -0.3976 -0.4712
 5178S        S11982   8.004   1.467  31.690  0.6110  0.1878  0.1873
 5179S        S11983   4.100   3.326  16.165  0.0139 -0.1176 -0.5286
 5180S        S11984   8.204   2.641  11.751 -0.8261 -0.5898  0.0430
 5181S        S11985   0.618   0.079  31.003  0.3200 -0.1970 -0.7511
 5182S        S11986   6.359   1.700  24.598 -0.5276 -0.1285  0.2132
 5183S        S11987   4.618   1.144  28.213  0.0319  0.5641 -0.5775
 5184S        S11988   4.871   3.436  24.820  0.4500  0.0994  0.0358
 5185S        S11989   2.456  10.879  27.074 -0.2012 -0.5965  0.0112
 5186S        S11990   6.574   9.364  14.995  0.1540 -0.2774 -0.3668
 5187S        S11991  11.230   8.330  15.592 -0.4525 -0.2093  0.0647
 5188S        S11992   1.089   6.215  24.574  0.1264 -0.4582  0.4419
 5189S        S11993  11.128   1.366  25.937  0.2509  0.4301  0.3645
 5190S        S11994   6.198   4.138  22.405 -0.0151 -0.4696 -0.1762
 5191S        S11995   2.959   4.510  25.499 -0.2828 -0.3089  0.3062
 5192S        S11996   9.427   6.317  26.517  0.3044  0.1650  0.0444
 5193S        S11997   9.230   7.070  29.088  0.0948  0.3624  0.8089
 5194S        S11998   8.027   3.855  30.832 -0.3178  0.2193  0.3166
 5195S        S11999  10.085  12.234  26.426 -0.3589 -0.2969  0.5841
 5196S        S12000   0.422   4.135  14.172  0.2035  0.2190  0.4283
 5197S        S12001   4.796   8.953  23.704  0.1229  0.0414 -0.2237
 5198S        S12002   4.138   8.593  17.804  0.3421  0.3099 -0.3960
 5199S        S12003   5.554   3.239  16.459 -0.3064 -0.1379  0.1179
 5200S        S12004   2.904   1.474  12.025  0.0765  0.0364 -0.2919
 5201S        S12005   5.097   3.044  16.413  0.1704  0.8194 -0.4704
 5202S        S12006   8.748   7.209  24.828  0.2223 -0.3009 -0.3442
 5203S        S12007   1.007   6.971  23.791 -0.1818 -0.0117  0.3963
 5204S        S12008  10.656   9.266  19.324 -0.2061  0.1563 -0.4073
 5205S        S12009   1.234   8.481  15.467 -0.2343 -0.0582 -0.0383
 5206S        S12010   5.826   1.528  22.192 -0.0060 -0.5809 -0.0118
 5207S        S12011  11.395   7.073  13.370  0.0060  0.1644  0.2614
 5208S        S12012   1.805   7.691  14.312 -0.1081  0.0533  0.0919
 5209S        S12013   8.385   1.173  21.066  0.3332  0.1303  0.6391
 5210S        S12014  12.189   4.711  13.086 -0.2119 -0.5632 -0.0848
 5211S        S12015   6.974   5.267  27.005 -0.5323  0.2012 -0.3045
 5212S        S12016  11.464  11.817  18.665 -0.1397  0.0194  0.0715
 5213S        S12017   3.710   7.890  22.657  0.0050  0.1029  0.6059
 5214S        S12018   8.776   2.932  18.895 -0.1697 -0.5573 -0.1785
 5215S        S12019   0.485  12.039  15.865 -0.4182  0.1118  0.2322
 5216S        S12020  10.356  11.094  18.434  0.4251  0.3268 -0.0101
 5217S        S12021   1.918   5.701  29.789  0.1397  0.0507 -0.5329
 5218S        S12022   5.864   2.850  16.924 -0.1759  0.3228  0.3225
 5219S        S12023   1.430   8.738  25.474 -0.0775 -0.6941 -0.7255
 5220S        S12024   5.850   7.951  20.961 -0.4407  0.1828  0.1468
 5221S        S12025   1.035   7.306  20.950 -0.1305 -0.0048 -0.0938
 5222S        S12026   7.059   7.406  14.694  0.3942  0.1410 -0.2203
 5223S        S12027   1.174   0.330  21.439 -0.3514 -0.3492  0.2005
 5224S        S12028  11.596   9.756  29.781  0.5234 -0.3454 -0.4782
 5225S        S12029   4.602   9.443  17.443  0.0047 -0.3330 -0.1637
 5226S        S12030   6.591   5.962  16.829 -0.2198 -0.2104 -0.0325
 5227S        S12031   3.513   4.587  12.642  0.1027  0.3495 -0.0661
 5228S        S12032  10.245   2.802  17.352 -0.0136 -0.0047  0.2770
 5229S        S12033   4.548   0.367  22.403  0.2334  0.2606 -0.1743
 5230S        S12034   8.500   8.443  20.363  0.3584 -0.3402 -0.2634
 5231S        S12035   8.966   3.033  12.177 -0.2343 -0.2503 -0.3123
 5232S        S12036   0.923   8.853  24.094  0.3631  0.3248 -0.4471
 5233S        S12037   5.609   1.239  24.201  0.0527 -0.1138 -0.1118
 5234S        S12038  10.796  10.182  26.307  0.1749 -0.2905 -0.1888
 5235S        S12039  11.718  10.470  24.222  0.0336  0.0757  0.9369
 5236S        S12040   9.766   9.007  18.963 -0.1812 -0.5293 -0.4662
 5237S        S12041  10.264   9.775  12.100  0.4539 -0.3716 -0.0168
 5238S        S12042   2.687   5.914  19.291 -0.2404 -0.2664  0.2385
 5239S        S12043   9.315   2.038  20.181 -0.1545 -0.0927  0.2097
 5240S        S12044   1.304  11.129  26.250  0.1570 -0.4014  0.6047
 5241S        S12045  10.137   2.373  14.991 -0.0227  0.1017  0.1262
 5242S        S12046   3.279   8.933  20.064  0.0663 -0.2713  0.1483
 5243S        S12047  11.825   7.650  21.415 -0.3790 -0.1748 -0.6556
 5244S        S12048   6.348  11.276  26.699  0.5430  0.0606  0.0134
 5245S        S12049  12.226   8.255  28.894 -0.3026  0.3105 -0.0154
 5246S        S12050   6.535   0.258  27.128 -0.7330 -0.6421 -0.3801
 5247S        S12051   0.977   3.293  20.776  0.4137  0.1284 -0.3994
 5248S        S12052  10.543   8.689  25.639  0.2316 -0.9213  0.5414
 5249S        S12053  10.846  11.367  28.835 -0.3155 -0.0325 -0.0643
 5250S        S12054   8.602   1.654  18.924 -0.0282  0.2285  0.1239
 5251S        S12055   6.419   7.562  25.072  0.2220 -0.7033  0.2465
 5252S        S12056   0.620   5.656  22.672  0.3394  0.2135  0.2801
 5253S        S12057  10.221   8.164  28.105  0.5238  0.1863  0.3083
 5254S        S12058  11.227  11.125  14.514 -0.1605 -0.0841 -0.1143
 5255S        S12059  10.112   5.895  14.554 -0.1368 -0.2933 -0.1133
 5256S        S12060   5.952   6.295  17.336 -0.0949  0.1210 -0.0882
 5257S        S12061   0.891   1.054  16.532 -0.1787  0.0816 -0.2303
 5258S        S12062   3.245   5.163  16.519 -0.4085 -0.5880 -0.2787
 5259S        S12063  11.076   5.762  22.138 -0.0207  0.1142  0.5736
 5260S        S12064   2.342   1.372  21.678 -0.1250  0.2491  0.0054
 5261S        S12065   3.139   1.718  14.362  0.0841  0.1123  1.0342
 5262S        S12066   2.062   6.942  25.097  0.1766 -0.1018  0.1641
 5263S        S12067   5.512   2.884  22.990 -0.0468  0.1883 -0.0593
 5264S        S12068   1.230   6.186  23.716  0.2801  0.1620  0.3585
 5265S        S12069   1.172  12.230  13.066 -0.0213  0.1070  0.0250
 5266S        S12070  12.001   7.081  14.197  0.2046  0.5910 -0.0947
 5267S        S12071  12.024   2.477  13.496 -0.0131 -0.2212  0.2622
 5268S        S12072   0.581   6.831  14.495  0.0019 -0.4367 -0.0354
 5269S        S12073   5.922   3.846  20.951  0.2533 -0.3489  0.7471
 5270S        S12074   7.174   4.175  24.628 -0.5326 -0.2816 -0.1183
 5271S        S12075   3.309  10.158  12.597 -0.2486  0.0215  0.1464
 5272S        S12076   6.474   4.678  13.425  0.0703 -0.1992  0.6687
 5273S        S12077   7.415   3.686  23.705  0.0276 -0.6261 -0.1967
 5274S        S12078   8.167   6.040  15.038  0.0192  0.2091 -0.6243
 5275S        S12079   1.014   4.264  17.315 -0.3187 -0.4791 -0.0423
 5276S        S12080   4.368   8.060  15.687 -0.0706 -0.2646 -0.1610
 5277S        S12081  11.730   9.818  22.843 -0.2302 -0.1753 -0.0333
 5278S        S12082  12.266   8.797  10.638  0.2654  0.2610  0.0302
 5279S        S12083   7.733   1.551  24.334  0.2988  0.0635 -0.1140
 5280S        S12084   9.620   2.967  11.560 -0.0724  0.2104 -0.4581
 5281S        S12085   6.025   4.883  13.200 -0.2091 -0.1009  0.0886
 5282S        S12086  11.926  11.281  31.674  0.0225  0.0743 -0.2188
 5283S        S12087  10.900   0.964  27.006  0.1373  0.1048 -0.3877
 5284S        S12088   0.042   6.047  23.448  0.2755  0.1293  0.1485
 5285S        S12089   5.879   9.564  22.309  0.1001  0.3607  0.0650
 5286S        S12090   3.696  11.113  16.063 -0.2853  0.4107 -0.0566
 5287S        S12091   2.968   1.033  27.929 -0.2063 -0.2784 -0.1172
 5288S        S12092   3.335   1.515  25.167 -0.3330 -0.4936  0.0741
 5289S        S12093   2.428   9.460  21.952  0.2826 -0.1523 -0.0164
 5290S        S12094   1.508   7.213  21.422 -0.1497 -0.4271 -0.2163
 5291S        S12095  10.471   5.433  30.452 -0.5013  0.2897 -0.0820
 5292S        S12096   2.715  11.295  17.623  0.1751  0.2068  0.0402
 5293S        S12097   2.373   9.041  24.900 -0.0616 -0.3859 -0.0781
 5294S        S12098   9.131   7.446  14.733  0.4898  0.3838  0.4276
 5295S        S12099   4.105  11.166  23.323  0.1104 -0.2609 -0.5979
 5296S        S12100   3.699   6.781  12.751  0.1408 -0.1351  0.1829
 5297S        S12101  10.951   7.019  14.424  0.7013 -0.0087  0.2255
 5298S        S12102  10.561   2.998  28.828  0.4034  0.1407 -0.2336
 5299S        S12103   1.234  10.611  12.405 -0.2461 -0.1209 -0.3642
 5300S        S12104   8.025   3.388  27.414 -0.3445  0.5310 -0.0276
 5301S        S12105   4.652   9.221  46.716  0.2863 -0.1520  0.5238
 5302S        S12106  10.239   8.918  30.737 -0.1004 -0.5508 -0.0381
 5303S        S12107   2.237   5.930  14.994 -0.2535 -0.3395 -0.0228
 5304S        S12108   4.863   7.389  16.301 -0.2376 -0.2148  0.2961
 5305S        S12109   6.805   5.970  22.668 -0.4029 -0.5896  0.3315
 5306S        S12110  10.674  11.763  15.300  0.1332  0.1109 -0.0333
 5307S        S12111   5.465   6.252  25.200 -0.4020 -0.0390  0.4151
 5308S        S12112   3.198   3.592  13.712 -0.2110 -0.5617 -0.8987
 5309S        S12113   1.012   2.069  27.243  0.3477 -0.2655 -0.1513
 5310S        S12114   9.108   3.350  32.381 -0.1274  0.1164 -0.8331
 5311S        S12115   5.440   3.215  22.516 -0.2161 -0.4602 -0.0995
 5312S        S12116   5.864   3.929  25.957  0.1498  0.1824  0.3658
 5313S        S12117   4.668   2.386  29.134 -0.0586 -0.2165  0.1200
 5314S        S12118  11.455   6.793  17.310  0.0312 -0.3431 -0.5729
 5315S        S12119   2.540   7.388  24.532  0.2269  0.0997 -0.2200
 5316S        S12120   4.195   3.027  27.960  0.0501  0.3123 -0.0978
 5317S        S12121   2.032   5.683  25.128  0.0088  0.0838  0.6853
 5318S        S12122  10.695   2.704  32.071 -0.4525  0.0490  0.4089
 5319S        S12123   1.337  11.906  33.384  0.0408  0.0705  0.0581
 5320S        S12124   2.723   0.704  23.261 -0.1058  0.0490 -0.3295
 5321S        S12125   0.056   0.538  21.792  0.3869 -0.4123  0.1293
 5322S        S12126   3.765   5.752  22.701 -0.3126 -0.0813  0.2291
 5323S        S12127   8.110  11.988  25.314  0.1649  0.2888  0.2933
 5324S        S12128   5.679   4.855  17.442  0.0673  0.0743 -0.5775
 5325S        S12129   0.968   9.475  19.103  0.2762 -0.3215  0.2274
 5326S        S12130   1.126  12.335  18.823  0.2966 -0.3099 -0.2767
 5327S        S12131   8.168  11.335  21.191 -0.1826  0.4551  0.0805
 5328S        S12132   2.259   9.121  25.370 -0.3828 -0.7318 -0.7901
 5329S        S12133   7.762   4.342  31.538 -0.0142  0.2112  0.7354
 5330S        S12134   6.674   1.151  31.888 -0.3158 -0.0823 -0.0594
 5331S        S12135  11.235   5.170  21.530  0.1611 -0.8368  0.0820
 5332S        S12136   8.248   1.430  31.211  0.3837  0.0658  0.1478
 5333S        S12137   3.900   8.502  19.475  0.2042 -0.6007  0.0211
 5334S        S12138   4.554  11.668  18.576 -0.0167  0.0827 -0.1468
 5335S        S12139  11.161   4.621  15.197 -0.0010 -0.1343 -0.0073
 5336S        S12140   2.111   6.424  17.209  0.1211  0.0890 -0.0722
 5337S        S12141   0.518  10.769  28.613 -0.0492 -0.4079 -0.4988
 5338S        S12142  11.429  10.213  47.910  0.0504 -0.1469  0.5231
 5339S        S12143   1.992   4.355  25.871 -0.0336 -0.1448 -0.0763
 5340S        S12144   9.901   6.811  11.105 -0.3229 -0.0185  0.3529
 5341S        S12145  11.744  10.586  29.586  0.5363  0.4927 -0.2688
 5342S        S12146   4.333   2.032  15.752 -0.0360  0.0970 -0.1942
 5343S        S12147   2.060  12.106  19.065  0.0116 -0.4174  0.0851
 5344S        S12148   8.935   1.615  18.175  0.1400  0.5437  0.5635
 5345S        S12149   9.810   6.103  14.230 -0.4707  0.3056 -0.4845
 5346S        S12150   2.179   7.352  17.216 -0.2487 -0.1948  0.1549
 5347S        S12151   8.412   9.317  20.128 -0.1359 -0.4057  0.1935
 5348S        S12152  11.808  10.315  14.475  0.1033 -0.1847 -0.5827
 5349S        S12153   2.340   3.481  14.607  0.0724 -0.1259  0.2596
 5350S        S12154   6.750   6.906  26.798 -0.1484  0.1728 -0.3908
 5351S        S12155   4.218   3.361  19.001  0.1951  0.3551  0.1966
 5352S        S12156   5.012   4.738  12.289  0.0363 -0.3130 -0.0270
 5353S        S12157   6.435  11.458  25.755 -0.4292  0.4712  0.2229
 5354S        S12158   4.770   5.695  23.038 -0.0969 -0.0629  0.2473
 5355S        S12159   8.750   7.206  15.120  0.0022  0.0885 -0.0449
 5356S        S12160  10.481   5.296  15.721 -0.1752 -0.2521  0.4058
 5357S        S12161   2.292   8.714  11.504  0.1571  0.1572 -0.1925
 5358S        S12162   8.209  10.977  30.530 -0.5451 -0.4839 -0.1174
 5359S        S12163   5.449   9.849  30.115  0.4448 -0.0429  0.9881
 5360S        S12164   7.795   5.501  20.855 -0.1962  0.4097  0.1870
 5361S        S12165   8.147   5.702  15.729  0.1238 -0.1715  0.3929
 5362S        S12166   8.774   8.774  26.719  0.2894 -0.4081 -0.6176
 5363S        S12167   4.377  11.811  26.360 -0.3121  0.7826 -0.2705
 5364S        S12168  11.199   8.707  14.096 -0.2155 -0.0388 -0.3156
 5365S        S12169   2.866   1.299  18.686  0.1864 -0.5496  0.0520
 5366S        S12170   7.462  11.165  28.288 -0.2729  0.2978  0.0245
 5367S        S12171   7.703  10.932  26.825  0.1565  0.1407 -0.2425
 5368S        S12172   1.930   9.839  28.106  0.0164  0.4261  0.0230
 5369S        S12173   3.133   3.419  14.578  0.1633  0.0977  0.0615
 5370S        S12174  11.751   4.492  12.784 -0.0199 -0.1459  0.0685
 5371S        S12175   9.756   3.204  18.574 -0.6427  0.2088  0.1896
 5372S        S12176   0.571   3.922  30.145 -0.5781 -0.0124 -0.1740
 5373S        S12177   6.241   5.397  14.060 -0.1014 -0.2008 -0.0409
 5374S        S12178   6.057   1.851  17.984  0.1274  0.3525  0.1334
 5375S        S12179   0.083   0.648  19.560  0.1650 -0.4090  0.1373
 5376S        S12180   1.592  12.131  16.373 -0.0329  0.2217  0.1391
 5377S        S12181   8.483   0.720  13.686  0.0569  0.1948  0.1262
 5378S        S12182   1.499  10.681  27.948 -0.5335  0.4741  0.2386
 5379S        S12183   7.247   0.587  13.764  0.2076 -0.4023 -0.0336
 5380S        S12184   4.751   3.092  26.556  0.4263  0.1427 -0.5476
 5381S        S12185   6.351  11.520  12.857  0.3837  0.7282  0.0727
 5382S        S12186   4.331   4.889  29.377  0.0966  0.4864 -0.0363
 5383S        S12187   1.453   9.556  21.032 -0.0204  0.1643 -0.0031
 5384S        S12188  11.891   9.339  14.804  0.4291  0.3443  0.2038
 5385S        S12189   9.363   9.824  17.258 -0.1910  0.2600  0.3921
 5386S        S12190   0.809   6.209  16.653  0.0193  0.0497  0.1012
 5387S        S12191   6.088   8.721  18.315 -0.0921 -0.6431 -0.1604
 5388S        S12192   9.657   5.723  12.276  0.2896  0.3585  0.5464
 5389S        S12193   6.246   0.047  24.473 -0.1551 -0.0280  0.2106
 5390S        S12194  10.923   4.334  14.774 -0.3311 -0.5105  0.2266
 5391S        S12195  10.519   3.583   9.005 -0.3306 -0.4700  0.1416
 5392S        S12196   5.383   9.253  13.835 -0.3749 -0.3832  0.0075
 5393S        S12197   4.054   8.444  18.991  0.1758  0.4449 -0.2576
 5394S        S12198   5.159  10.353  26.874 -0.0059  0.6451 -0.0996
 5395S        S12199   5.601   2.396  29.632  0.3682  0.5729  0.2745
 5396S        S12200   9.946   2.249  31.155  0.8487  0.0686 -0.0362
 5397S        S12201   2.060   6.378  16.329 -0.2184 -0.5709 -0.1233
 5398S        S12202   4.641   6.015  19.340  0.2427  0.1834 -0.6107
 5399S        S12203   5.584   9.074  49.911  0.2544 -0.2282  0.5194
 5400S        S12204  11.618  11.226  14.116  0.5364 -0.1508  0.0782
 5401S        S12205   2.075  11.926  17.439 -0.3272  0.1082 -0.4275
 5402S        S12206   9.296   5.536  16.371  0.5670  0.2310 -0.2051
 5403S        S12207   5.231  10.674  15.705 -0.2920 -0.3006  0.0343
 5404S        S12208   5.581  11.927  17.502 -0.5745  0.1584  0.3538
 5405S        S12209   0.004  11.431  15.579 -0.0845  0.1832 -0.2139
 5406S        S12210   9.612   0.094  25.407  0.0338 -0.2138 -0.2321
 5407S        S12211   1.598  11.904  22.574 -0.1467 -0.0783  0.1353
 5408S        S12212   7.748   1.291  30.740 -0.2350  0.1852  0.0216
 5409S        S12213   8.180   1.886  32.617  0.6785  0.0603  1.1161
 5410S        S12214  12.300   7.702  18.998 -0.5372  0.3900 -0.2004
 5411S        S12215   0.604   9.472  12.475 -0.1705 -0.0683 -0.0705
 5412S        S12216   0.109   6.317  43.495  0.0411 -0.2145  0.0570
 5413S        S12217   0.767  10.273  17.773 -0.5444  0.3570  0.3951
 5414S        S12218  10.810   2.904  29.325  0.0631  0.1558  0.4119
 5415S        S12219   3.068   1.425  19.543 -0.0664 -0.3727  0.2354
 5416S        S12220   2.462   1.665  13.988 -0.3293 -0.0711 -0.0039
 5417S        S12221   8.841   5.452  12.603  0.2818  0.5801 -0.4534
 5418S        S12222   0.548   6.864  19.774  0.1010  0.7466  0.1402
 5419S        S12223  10.529   0.874  27.505 -0.2941 -0.3309  0.1500
 5420S        S12224  10.594   9.868  20.359  0.2003  0.3628 -0.3293
 5421S        S12225   6.019   6.419  26.973 -0.5652  0.4816 -0.3328
 5422S        S12226  11.882   9.409  13.298  0.0535  0.0112  0.1517
 5423S        S12227   3.461   2.893  18.674 -0.1624  0.1463  0.2565
 5424S        S12228  10.557  12.165  14.020 -0.2869 -0.3213  0.1520
 5425S        S12229   8.302   6.889  29.972  0.0141  0.4583 -0.7883
 5426S        S12230  10.527   7.931  23.869  0.0567  0.1841  0.3969
 5427S        S12231   8.677   6.851  31.071  0.8899 -0.1855  0.0789
 5428S        S12232   2.537   1.194  22.223  0.0665  0.1348  0.2105
 5429S        S12233  11.520   7.970  11.541  0.0955 -0.2602  0.1064
 5430S        S12234   5.751   4.184  26.856 -0.1764  0.3206  0.5900
 5431S        S12235  11.177   9.249  22.145 -0.1748 -0.0061 -0.3893
 5432S        S12236   4.282   9.079  12.965 -0.5375 -0.1454  0.0466
 5433S        S12237   5.243   6.487  19.368 -0.0242  0.0478 -0.5877
 5434S        S12238   9.508   8.166  15.931 -0.1497 -0.1724  0.0101
 5435S        S12239   8.792   5.694  22.398  0.3118 -0.3871 -0.2066
 5436S        S12240   3.543   0.116  19.985 -0.0681 -0.0334 -0.4957
 5437S        S12241   8.793   6.171  29.720  0.5384 -0.3463 -0.1709
 5438S        S12242  11.189   6.876  22.921  0.0964 -0.0393 -0.2255
 5439S        S12243   9.862   1.206  13.809 -0.4544 -0.2816  0.1926
 5440S        S12244  11.352  11.135  18.204 -0.2203 -0.0064  0.1623
 5441S        S12245   2.775   8.744  30.199 -0.0656 -0.1753 -0.2307
 5442S        S12246   3.661   2.000  17.769 -0.0350  0.2621 -0.2751
 5443S        S12247  12.330   8.287  19.808  0.3067  0.2216  0.4466
 5444S        S12248   9.732   3.221  19.726 -0.3604  0.2639  0.0846
 5445S        S12249   3.778   2.849  29.210 -0.3051 -0.0217 -0.2371
 5446S        S12250   6.187  11.379  21.284  0.0570  0.1514 -0.7184
 5447S        S12251   5.524   9.860  13.192  0.4939  0.3045 -0.2676
 5448S        S12252  11.504   2.933  12.486  0.1646  0.0766  0.6546
 5449S        S12253   2.652  12.053  16.122 -0.4802 -0.1277 -0.2837
 5450S        S12254   3.635   9.670  21.603  0.3318 -0.0361  0.1941
 5451S        S12255   9.428   8.763  14.447  0.0858  0.2146  0.1784
 5452S        S12256   9.494   6.194  27.881  0.0970 -0.1475 -0.1375
 5453S        S12257   8.724   0.955  11.329  0.4731  0.4368  0.2007
 5454S        S12258   9.524   2.292  19.215  0.6348  0.3932 -0.0351
 5455S        S12259   8.466   7.644  14.190 -0.0215  0.3122 -0.2161
 5456S        S12260   8.661   3.948  27.752 -0.7321  0.3923 -0.1784
 5457S        S12261   9.241   7.766  18.232  0.1948  0.2327  0.2217
 5458S        S12262   5.115   6.497  25.509  0.2440  0.3254  0.4235
 5459S        S12263   0.709   8.525  12.563 -0.2713 -0.1941  0.1974
 5460S        S12264   0.581  12.282  26.816 -0.5707 -0.0977 -0.0717
 5461S        S12265   7.070   6.401  19.552  0.2195  0.3286  0.1489
 5462S        S12266   2.390   8.405  31.801  0.2487  0.4828 -0.1006
 5463S        S12267   1.922   3.974  25.491 -0.1774 -0.8027  0.0981
 5464S        S12268  10.437   2.202  12.085 -0.3140  0.2504  0.1174
 5465S        S12269   0.525   0.231  26.454  0.3121 -0.3849 -0.2793
 5466S        S12270   0.985  11.117  25.101 -0.1871  0.3061 -0.0425
 5467S        S12271  10.686   6.082  25.400  0.3835 -0.0105 -0.0023
 5468S        S12272   9.030   0.419  31.612 -0.0642 -0.6624  0.0679
 5469S        S12273   2.047   7.366  28.556  0.2820  0.3350  0.4340
 5470S        S12274   8.624   9.233  17.444  0.2355  0.0214  0.5156
 5471S        S12275   0.811  12.037  27.979 -0.2376  0.3425 -0.7787
 5472S        S12276   8.141   7.207  28.266 -0.1252 -0.3139  0.0143
 5473S        S12277   1.913   0.953  19.971 -0.2763  0.4845  0.1847
 5474S        S12278   6.959  11.628  25.979  0.1775  0.5445 -0.2491
 5475S        S12279   0.536   5.192  19.405 -0.2350 -0.1686 -0.1723
 5476S        S12280   9.694   9.321  22.796  0.1313  0.4447  0.1197
 5477S        S12281  10.919   6.534  15.882  0.0342  0.5094  0.0691
 5478S        S12282   4.006   7.111  19.616 -0.0564  0.6633  0.1257
 5479S        S12283   6.977  10.351  13.108 -0.0458 -0.0578  0.0844
 5480S        S12284   3.205  11.448  16.432 -0.2073  0.3149 -0.1132
 5481S        S12285   9.398   7.197  20.470 -0.5759  0.5933 -0.4484
 5482S        S12286   3.310   3.126  13.426 -0.0637  0.0337 -0.3218
 5483S        S12287   7.944  12.225  24.438  0.3745 -0.6645  0.6399
 5484S        S12288   5.349   9.205  26.998  0.3561 -0.1841 -0.6489
 5485S        S12289   5.548   3.016  21.950  0.3796 -0.3953  0.4815
 5486S        S12290  12.297   1.579  21.391  0.2759 -0.3269  0.1207
 5487S        S12291   7.517   4.554  26.965 -0.4385  0.1135  0.1166
 5488S        S12292   1.648   7.697  28.690  0.1958 -0.1611  0.1265
 5489S        S12293   5.305  10.791  21.104  0.0320  0.1671  0.1193
 5490S        S12294   3.004   2.934  19.557  0.0133 -0.0815  0.3030
 5491S        S12295   7.314   7.987  16.378 -0.0376  0.0826 -0.0796
 5492S        S12296   8.534   5.322  39.165  0.1225 -0.0152  0.3365
 5493S        S12297   2.367   5.913  26.778 -0.0539  0.6623  0.0228
 5494S        S12298   3.714   3.393  15.637  0.7929 -0.1830  0.2584
 5495S        S12299   4.632   4.275  19.273 -0.1825 -0.1439  0.2418
 5496S        S12300   8.512   0.653  31.327 -0.0427  0.2872  0.1677
 5497S        S12301  10.551   7.017  13.074  0.0289 -0.1332  0.1214
 5498S        S12302   4.031   3.931  14.340 -0.4936 -0.3779 -0.2053
 5499S        S12303   3.432   9.959  27.749  0.3620 -0.6243  0.4747
 5500S        S12304  10.194   9.431  27.330  0.3918  0.4137 -0.4200
 5501S        S12305   0.453   0.493  14.019 -0.1383 -0.1800  0.5217
 5502S        S12306   0.000   4.111  18.677  0.1277 -0.3521 -0.0565
 5503S        S12307   0.079  12.261  32.778 -0.5782  0.2720  0.1825
 5504S        S12308   8.273   3.204  18.192 -0.1624 -0.1996  0.0372
 5505S        S12309   2.129   3.889  13.219 -0.3539  0.0862 -0.0854
 5506S        S12310   8.396   5.731  33.756 -0.0262 -0.0726  0.0674
 5507S        S12311   4.547   1.328  22.459  0.2170 -0.3127 -0.2024
 5508S        S12312  11.402  12.239  19.139  0.3149  0.4428 -0.1447
 5509S        S12313   5.728   5.404  14.015  0.2263  0.1887 -0.1109
 5510S        S12314   0.834  11.508  11.427  0.2287 -0.2078 -0.1076
 5511S        S12315   6.689  11.780  13.819 -0.1016  0.2767  0.1137
 5512S        S12316   2.646   3.744  16.304 -0.2566  0.0034  0.3305
 5513S        S12317   6.318   6.481  15.514  0.4303  0.1309 -0.0233
 5514S        S12318   1.689  11.301  28.667  0.1023 -0.1401  0.1173
 5515S        S12319   4.035   6.365  16.037  0.1041  0.1441 -0.2310
 5516S        S12320   7.599   2.541  22.773 -0.1936 -0.3739  0.3179
 5517S        S12321   9.700   6.474  11.747 -0.3271 -0.1044 -0.2571
 5518S        S12322   1.935  11.622  11.683  0.0270  0.0150  0.1226
 5519S        S12323   8.227   5.460  11.964  0.0582  0.0701 -0.0592
 5520S        S12324   4.864   6.881  22.038 -0.0100  0.5980  0.0183
 5521S        S12325   8.478   7.843  26.224  0.3395 -0.2368  0.2556
 5522S        S12326   9.510   5.168  16.684 -0.0788 -0.2163 -0.8321
 5523S        S12327   7.692   9.210  13.807 -0.3425  0.0613  0.1521
 5524S        S12328   4.197   1.774  23.701  0.0482 -0.0707 -0.2341
 5525S        S12329   7.136   0.837  29.324 -0.4137  0.4459 -0.4015
 5526S        S12330   6.612   8.296  18.814  0.2910 -0.2128 -0.0531
 5527S        S12331  10.739   7.196  11.394 -0.4247  0.4062  0.0084
 5528S        S12332   3.179   2.632  15.822 -0.2154  0.5766  0.1867
 5529S        S12333   3.982   1.026  29.276  0.6293  0.1987  0.6072
 5530S        S12334  10.590   3.413  23.505  0.1147  0.3029 -0.2500
 5531S        S12335   6.740   3.950  17.221 -0.3223 -0.1605 -0.0894
 5532S        S12336  11.923   3.951  14.211  0.6761 -0.3138  0.3228
 5533S        S12337   7.438   3.741  28.156 -0.0215  0.4127 -0.3707
 5534S        S12338   7.972   1.275  19.556  0.1066 -0.3414  0.2381
 5535S        S12339  10.798   6.482  26.794 -0.4091 -0.2232  0.7080
 5536S        S12340   9.645   6.062  10.711 -0.4059  0.2139 -0.4917
 5537S        S12341  11.799   1.395  30.410  0.3376 -0.2518  0.1268
 5538S        S12342   4.834   0.266  30.025 -0.4437 -0.1657  0.2780
 5539S        S12343   5.939   4.475  14.389 -0.1962  0.0934 -0.4935
 5540S        S12344   3.095   0.829  14.142  0.4295  0.1157 -0.3979
 5541S        S12345   1.112  12.346  22.920 -0.1033  0.1065 -0.1110
 5542S        S12346   0.104  11.609  16.070 -0.0663 -0.6106  0.0306
 5543S        S12347   8.004   8.917  19.738  0.1369  0.0652  0.3101
 5544S        S12348   5.339  10.872  13.364 -0.5288 -0.4425  0.4694
 5545S        S12349  10.348  10.803  12.964  0.2489 -0.1476 -0.3783
 5546S        S12350   5.941   5.968  21.092 -0.1554 -0.3717 -0.5569
 5547S        S12351   1.105   5.200  19.976  0.0564 -0.0871 -0.4019
 5548S        S12352  10.290   5.513  21.876  0.1933  0.6064  0.1059
 5549S        S12353   2.242   5.506  27.596 -0.4852  0.2625 -0.1419
 5550S        S12354   4.993   4.710  24.024 -0.2269 -0.1097 -0.5785
 5551S        S12355   0.750   3.485  25.754  0.0662  0.4407  0.5016
 5552S        S12356   5.342   9.137  12.522  0.1599 -0.1008 -0.1386
 5553S        S12357   8.852   4.539  31.045 -0.1729  0.0099 -0.6220
 5554S        S12358   0.208  10.687  30.564  0.1783 -0.5084 -1.2671
 5555S        S12359   1.957   8.977  18.494 -0.1353 -0.0167  0.3515
 5556S        S12360   8.007  10.515  32.644 -0.3303 -0.0288 -0.1189
 5557S        S12361   4.205   8.858   6.825 -0.4636 -0.2168  0.0326
 5558S        S12362   5.545  10.328  28.865 -0.0900  0.0386  0.1085
 5559S        S12363   3.581   6.670  22.476  0.2682  0.3245  0.0778
 5560S        S12364   4.054   5.241  12.612  0.3000 -0.4856  0.3419
 5561S        S12365   7.870   2.508  24.661 -0.0922 -0.3346 -0.2089
 5562S        S12366  12.268   3.323  30.048  0.1159 -0.1453 -0.5450
 5563S        S12367   4.611   4.702  20.518 -0.3391  0.1064  0.1891
 5564S        S12368   3.849  11.612  25.310  0.0950 -0.1601 -0.3871
 5565S        S12369   7.563   2.323  28.231  0.2770 -0.5514 -1.0940
 5566S        S12370   2.735   4.605  24.556  0.4991  0.0015  0.2036
 5567S        S12371  11.491   4.863  22.026  0.0606 -0.3454 -0.2606
 5568S        S12372   9.432   8.600  16.880  0.0619  0.7579 -0.2732
 5569S        S12373  10.271   1.128  28.572 -0.3639 -0.6010 -0.2780
 5570S        S12374   6.600   6.577  25.100 -0.1093  0.4262  0.0286
 5571S        S12375   1.814   8.560  16.844 -0.1303 -0.0317  0.2524
 5572S        S12376   0.356  11.286  44.375 -0.2693  0.0464  0.8321
 5573S        S12377   8.044   5.520  12.970  0.1860 -0.5559 -0.2022
 5574S        S12378   9.963   0.391  12.886  0.4966 -0.1166 -0.0855
 5575S        S12379   9.035   5.984  16.963 -0.1251 -0.3247 -0.1311
 5576S        S12380   6.908  10.484  14.937  0.5513 -0.2259  0.1047
 5577S        S12381   2.361   3.133  14.962 -0.4071 -0.0349  0.1466
 5578S        S12382   7.477   9.568  27.809  0.1650  0.0902  0.1171
 5579S        S12383  10.784   2.447  16.139 -0.1205  0.0486 -0.6172
 5580S        S12384  11.450   1.068  25.620 -0.2165  0.6692  0.0171
 5581S        S12385   8.604   9.952  13.455 -0.1858 -0.0769 -0.0852
 5582S        S12386   4.861   5.088  11.782 -0.3721  0.4310  0.1422
 5583S        S12387   8.900   7.035  11.838 -0.1681  0.0953  0.3699
 5584S        S12388   3.382   1.263  14.005  0.2835 -0.5455 -0.1843
 5585S        S12389   0.238   6.769  13.280  0.2135 -0.1343 -0.1166
 5586S        S12390  10.548   3.033  13.070 -0.2019  0.2534 -0.1402
 5587S        S12391   3.541   4.765  29.932 -0.6468 -0.0748 -0.3603
 5588S        S12392   0.889  11.874  21.973  0.2438 -0.6858 -0.4045
 5589S        S12393  12.019   6.767  12.091 -0.1581 -0.3538  0.4071
 5590S        S12394   5.860   8.039  23.359  0.3217  0.1763 -0.2878
 5591S        S12395   7.275   7.920  18.404 -0.0820 -0.2607 -0.1844
 5592S        S12396   1.309   6.981  13.394 -0.0959 -0.0010 -0.0804
 5593S        S12397  11.574   8.357  14.216  0.2832  0.1725  0.1519
 5594S        S12398   4.412   4.783  30.738  0.4711  0.0462 -0.0853
 5595S        S12399   6.274   2.778  31.052 -0.1629 -0.0303  0.1374
 5596S        S12400   0.112   8.176  30.312  0.1088  0.5211  0.0656
 5597S        S12401  10.965  10.608  14.471  0.3748  0.1347  0.5120
 5598S        S12402   0.792   8.616  15.197 -0.2795 -0.2397 -0.0301
 5599S        S12403   0.870   4.143  30.806 -0.7352 -1.1868 -0.6927
 5600S        S12404   9.022   3.896  20.943 -0.3832 -0.5420 -0.2920
 5601S        S12405  12.294   8.024  29.348  0.9425 -0.1672 -0.1745
 5602S        S12406   9.666   7.057  17.435  0.1065  0.1839  0.0039
 5603S        S12407   4.146   4.339  23.884 -0.5045  0.2143  0.2259
 5604S        S12408  10.798   2.840  31.077  0.0889 -0.3901 -0.8383
 5605S        S12409  11.918   1.486  19.897  0.2489  0.0495 -0.6175
 5606S        S12410  10.568   7.611  25.141 -0.3666  0.2762  0.2899
 5607S        S12411   8.723   1.443  11.492 -0.3529  0.5776  0.1375
 5608S        S12412  11.071   0.665  12.642  0.0184 -0.4093  0.0019
 5609S        S12413   7.079   1.341  27.029  0.1681  0.0312  0.1972
 5610S        S12414   7.741   2.156  27.151  0.6989 -0.3503  0.1061
 5611S        S12415   4.900   5.141  22.987  0.1472 -0.4818  0.1161
 5612S        S12416  11.821   1.282  15.108  0.1920  0.0313  0.0283
 5613S        S12417   6.225   2.274  20.082 -0.3441  0.1474 -0.3128
 5614S        S12418   8.546   4.140  31.314 -0.4549  0.0302  0.3127
 5615S        S12419   9.750   3.734  27.559  0.0656 -0.4865  0.2912
 5616S        S12420  12.058   8.476  24.382  0.1439 -0.1918 -0.2661
 5617S        S12421  11.922   6.788  25.562  0.0743 -0.6860  0.0403
 5618S        S12422   5.406   4.569  21.572 -0.1964 -0.3988 -0.3528
 5619S        S12423   9.861   2.774  30.182  0.2660 -0.1034  0.4581
 5620S        S12424  10.837   6.066  12.592  0.1420 -0.4978  0.3523
 5621S        S12425  10.031   0.977  28.174 -0.1814  0.0056 -0.1709
 5622S        S12426   8.384   4.267  25.985 -0.1823  0.0192  0.0700
 5623S        S12427   5.345  11.327  20.879 -0.2464 -0.0223 -0.1872
 5624S        S12428   3.967  10.937  20.073  0.0735 -0.3903 -0.3479
 5625S        S12429  10.460   4.822  15.708 -0.1522 -0.0136 -0.0629
 5626S        S12430   8.517   8.086  19.708  0.1174 -0.0029  0.1959
 5627S        S12431   7.060   0.545  27.764  0.3448  0.2027 -0.7844
 5628S        S12432   5.168   9.378  24.494  0.0328 -0.3299 -0.3444
 5629S        S12433   2.665  12.268  24.792 -0.7574  0.1547 -0.5253
 5630S        S12434  10.996   5.095  16.868  0.1164  0.0990  0.4714
 5631S        S12435   8.623   9.517  18.291  0.0444  0.0151  0.4184
 5632S        S12436   9.613   7.239  21.843  0.2526  0.4874 -0.1800
 5633S        S12437  11.548   0.534  41.606 -0.1040 -0.4713  0.1172
 5634S        S12438   7.460   2.195  13.069 -0.1847 -0.0304  0.0400
 5635S        S12439   1.249   5.469  13.699  0.3133 -0.4632  0.0868
 5636S        S12440   8.894   3.161   5.439  0.0000 -0.1045  0.5842
 5637S        S12441   0.170   8.392  23.598 -0.3022  0.6634  0.0705
 5638S        S12442   7.122   9.025  16.586  0.2521  0.2638 -0.3160
 5639S        S12443   2.853   3.679  23.939 -0.1170  0.0958  0.3533
 5640S        S12444   8.605   5.055  30.639 -0.2478 -0.0327 -0.0397
 5641S        S12445   0.346   2.826  24.800 -0.1524 -0.0532 -0.2405
 5642S        S12446   7.519   5.526  12.759 -0.1294  0.2652  0.1900
 5643S        S12447   1.060   5.041  27.786 -0.1032  0.0047  0.4114
 5644S        S12448   8.531   6.194  16.784  0.0417  0.3378  0.3222
 5645S        S12449   3.178   8.781  33.409 -0.0163 -0.1672  0.1026
 5646S        S12450   1.727   3.001  14.262  0.4050  0.3192 -0.0427
 5647S        S12451   5.539   6.704  12.063 -0.0008  0.1832 -0.0787
 5648S        S12452   1.982   4.469  17.096  0.3144  0.6021  0.5810
 5649S        S12453   5.014   2.138  16.887  0.0306 -0.3678 -0.4812
 5650S        S12454   9.268   2.418  24.267  0.1430 -0.3938 -0.3466
 5651S        S12455   2.543   6.066  15.387 -0.1023 -0.2911 -0.0044
 5652S        S12456   0.824   4.645  11.724  0.1474 -0.2446 -0.6505
 5653S        S12457   4.170  12.131  21.275 -0.0478 -0.4937  0.0303
 5654S        S12458   4.028   8.045  16.716  0.2933  0.0197  0.0314
 5655S        S12459   9.588   3.198  16.653 -0.1396  0.2658 -0.1061
 5656S        S12460   7.618   7.786  19.428 -0.5319 -0.0133 -0.6759
 5657S        S12461   1.977   3.244  12.365  0.2835 -0.6060  0.4130
 5658S        S12462   6.821   8.060  21.138 -0.1509  0.0878  0.5072
 5659S        S12463   5.307   9.493  23.443 -0.6416 -0.5232 -0.7127
 5660S        S12464   9.314   8.120  27.711 -0.0017  0.1175 -0.2113
 5661S        S12465  11.920   5.118  12.157  0.3180  0.1797 -0.0249
 5662S        S12466   3.216   7.944  23.334  0.1454  0.0721 -0.4832
 5663S        S12467   0.739   4.757  27.514  1.0377 -0.7122  0.0674
 5664S        S12468   3.520   9.626  12.552  0.4436  0.1604 -0.0089
 5665S        S12469   7.545   0.943  28.424  0.2068  0.2058 -0.2447
 5666S        S12470   4.193   6.203  32.014  0.0058 -0.4017 -0.3507
 5667S        S12471   2.730   1.329  25.933  0.4992  0.1905  0.6864
 5668S        S12472   8.490   8.472  12.416  0.0932  0.2384  0.3143
 5669S        S12473   9.437   4.218   9.507  0.5128 -0.1606  0.0115
 5670S        S12474   7.216   2.160  13.956  0.1607  0.2684  0.5671
 5671S        S12475   3.009   3.135  20.556  0.4450 -0.2914 -0.0489
 5672S        S12476   7.362   0.569  23.286  0.5275 -0.1407 -0.4068
 5673S        S12477   2.371   2.148  21.198 -0.3740 -0.5342  0.0106
 5674S        S12478   4.238   2.811  14.490  0.4503  0.1959  0.7286
 5675S        S12479   4.773  11.144  16.356  0.2609 -0.0714 -0.1252
 5676S        S12480   8.188   2.443  27.582  0.1703 -0.6580  0.2204
 5677S        S12481   5.584   8.590  23.160 -0.1358  0.0474  0.1367
 5678S        S12482   5.109   1.592  13.497  0.1554  0.4997  0.2871
 5679S        S12483   8.203   2.102  15.749 -0.0824  0.4913 -0.3883
 5680S        S12484   7.900   1.809  18.097 -0.1062 -0.0762 -0.2488
 5681S        S12485   7.272   2.393  23.123  0.3102 -0.0584 -0.4499
 5682S        S12486   4.076   1.236  27.116  0.1796 -0.3682  0.1489
 5683S        S12487   3.201  12.285  21.174 -0.6086 -0.2167  0.5305
 5684S        S12488   9.561   0.781  17.700  0.0521  0.1555 -0.2193
 5685S        S12489   7.619   4.722  11.782 -0.0557 -0.4547 -0.3058
 5686S        S12490   5.291  10.925  19.960  0.1561  0.4547 -0.0627
 5687S        S12491   7.809   5.072  20.506 -0.1496 -0.0856 -0.0014
 5688S        S12492   9.549  11.090  27.241  0.8102 -0.3154  0.1071
 5689S        S12493   6.424   4.925  20.817 -0.4111 -0.4340  0.3842
 5690S        S12494  11.304  11.106  11.202  0.0931 -0.0854  0.2916
 5691S        S12495   0.695   3.048  20.373  0.3563  0.2204  0.2730
 5692S        S12496   3.220   4.946  28.727  0.3669  0.4165  0.3572
 5693S        S12497   9.934   6.188  15.361 -0.2353 -0.1999  0.7621
 5694S        S12498   7.986   0.117  14.175 -0.0880  0.1473 -0.2890
 5695S        S12499   9.185   3.093  27.556 -0.0534 -0.2801  0.0071
 5696S        S12500   1.265   9.206  23.931  0.0135  0.6771  0.5048
 5697S        S12501   3.910   6.049  18.432 -0.1200 -0.3319  0.0572
 5698S        S12502   8.107   2.300  16.199 -0.2244  0.0935  0.1308
 5699S        S12503   4.476   5.023  28.793 -0.2240  0.1082  0.1406
 5700S        S12504  10.725   5.081  12.260  0.5560  0.4157  0.6700
 5701S        S12505   8.636   8.707  19.125  0.0146 -0.0217 -0.5278
 5702S        S12506   3.920   2.570  26.969  0.0663 -0.4579 -0.0813
 5703S        S12507   8.063   4.022  13.104  0.1405  0.2887 -0.5370
 5704S        S12508   9.976   8.482   4.952  0.1928  0.1938 -0.0298
 5705S        S12509   0.544   9.856  11.842  0.2954 -0.3959  0.0562
 5706S        S12510   1.378   9.464  10.572 -0.1344  0.1226  0.4244
 5707S        S12511   1.708   2.230  23.382 -0.4576 -0.0219  0.1017
 5708S        S12512   0.001   0.939  31.262 -0.3677  0.4528  0.6931
 5709S        S12513   7.435   7.912  28.871 -0.1449 -0.2358  0.6555
 5710S        S12514  11.275   7.917  20.490  0.4774 -0.4452 -0.3331
 5711S        S12515   1.546   4.992  22.029 -0.3817 -0.3552 -0.1438
 5712S        S12516  10.691   2.794  22.848  0.5925 -0.2619  0.1199
 5713S        S12517  11.812   3.406  13.254 -0.0722 -0.0007  0.6285
 5714S        S12518   9.382   6.440  24.552  0.0648 -0.1224  0.2969
 5715S        S12519   9.752   0.682  20.712 -0.5010 -0.5432  0.4772
 5716S        S12520   8.740   0.344  29.787 -0.0191 -0.1648  0.4206
 5717S        S12521  11.216   5.858  27.445  0.2883 -0.3385  0.2776
 5718S        S12522   3.608   3.459  18.578  0.2630  0.3673  0.3243
 5719S        S12523   6.235   6.780  16.354 -0.5160 -0.1987 -0.1684
 5720S        S12524  11.663   6.522  29.034  0.2259 -0.3530 -0.5948
 5721S        S12525   1.638   9.560  17.812  0.1490 -0.2161 -0.2698
 5722S        S12526   0.450   5.963  15.711 -0.0031 -0.2522  0.0903
 5723S        S12527  12.143   8.064  13.511  0.4195  0.0770  0.2285
 5724S        S12528   6.325   5.856  16.336 -0.1177 -0.3314 -0.1786
 5725S        S12529  10.283   2.622  21.256 -0.0087 -0.5202 -0.1605
 5726S        S12530   6.648   2.878  15.627 -0.7386  0.0326  0.4285
 5727S        S12531   1.639   8.503  24.604  0.3260  0.0128  0.1535
 5728S        S12532  11.275   5.437  17.519 -0.3537 -0.0055  0.0101
 5729S        S12533   7.523   5.085  29.535  0.2511  0.3107 -0.3248
 5730S        S12534   9.152   1.382  16.619  0.0192 -0.1473  0.5932
 5731S        S12535   3.455   7.990  26.923 -0.5383 -0.1000  0.2944
 5732S        S12536   6.503   6.762  21.258 -0.3496 -0.0633 -0.6677
 5733S        S12537   8.883   2.381   5.068  0.0218  0.2610 -0.2080
 5734S        S12538   6.125   0.184  20.790 -0.5054  0.1770  0.7073
 5735S        S12539  10.263   3.879  24.538 -0.1570 -0.0059 -0.1991
 5736S        S12540   8.173  12.076  20.800  0.2204  0.0017 -0.0292
 5737S        S12541  10.424   6.587  17.103  0.2128  0.0226 -0.4960
 5738S        S12542   8.529   5.115  30.076  0.0158  0.3270 -0.2095
 5739S        S12543   2.893  12.255  12.395  0.0522 -0.5597  0.5758
 5740S        S12544   5.053   1.603  32.049  0.1063 -0.1065 -0.1899
 5741S        S12545   9.944  11.834  19.057 -0.3182  0.0175 -0.1015
 5742S        S12546   2.501  11.965  20.679 -0.1923  0.2484  0.5452
 5743S        S12547  12.292  10.676  16.790  0.5801 -0.3342 -0.3112
 5744S        S12548  10.293   8.359  36.431 -0.2314 -0.5101  0.4016
 5745S        S12549   6.938   2.015  30.864  0.2403 -0.1466  0.0736
 5746S        S12550   9.085  11.242  17.223  0.2183 -0.1328 -0.1414
 5747S        S12551   2.957   8.190  22.883 -0.4230  0.1140  0.5207
 5748S        S12552   7.502   5.325  13.586 -0.3813  0.1412  0.0111
 5749S        S12553   9.220   0.569  23.062 -0.1719 -0.0860  0.1712
 5750S        S12554   7.184   5.370  21.233 -0.0737 -0.0899 -0.7911
 5751S        S12555   8.079   0.142  30.705 -0.2406 -0.0552 -0.3912
 5752S        S12556   1.440   1.771  25.647 -0.0509  0.4441  0.2232
 5753S        S12557  11.360   6.726  18.393 -0.0192  0.0716  0.0389
 5754S        S12558  11.392   9.767  13.246 -0.9121  0.2176  0.3952
 5755S        S12559  10.594   8.629  31.573  0.2406 -1.2445 -0.1061
 5756S        S12560  10.854   7.477  11.826  0.2335 -0.0479  0.1860
 5757S        S12561  10.254  10.682  20.167  0.0426  0.0492 -0.2064
 5758S        S12562   1.504   9.446  11.413 -0.2387  0.0614 -0.0727
 5759S        S12563   3.180   5.000  18.694  0.1596 -0.1093  0.0528
 5760S        S12564   2.111   6.025  29.066  0.3247 -0.0295  0.3263
 5761S        S12565  12.156   2.257  25.192 -0.3512  0.1501 -0.0021
 5762S        S12566   6.638  12.203  22.806 -0.4215  0.2557 -0.0335
 5763S        S12567   7.490   5.053  30.556 -0.8139  0.1008  0.2961
 5764S        S12568   2.747   6.529  24.908 -0.3368 -0.1949 -0.3451
 5765S        S12569  11.607   3.309  29.209 -0.1112 -0.2303 -0.6289
 5766S        S12570   3.715   7.243  29.552 -0.0675 -0.4509  0.0362
 5767S        S12571   0.646   0.837  19.304  0.4578  0.6569  0.0429
 5768S        S12572   5.035   4.263  16.575  0.3184 -0.6415  0.0388
 5769S        S12573   7.299  12.168  24.062 -0.2983  0.0985 -0.1178
 5770S        S12574   8.852   7.787  27.704  0.0009  0.2213 -0.3004
 5771S        S12575   4.777   0.556  27.392 -0.2451 -0.0389 -0.2851
 5772S        S12576  10.576   1.369  28.218  0.5043 -0.0069  0.0819
 5773S        S12577   0.360  10.050  27.889 -0.3717  0.2073  0.4722
 5774S        S12578   0.853   9.820  31.249 -0.1580  0.1771  0.1850
 5775S        S12579   7.245   4.962  11.555 -0.5410  0.0975  0.0508
 5776S        S12580   0.731   5.048  28.690 -0.0742 -0.2929  0.3160
 5777S        S12581   6.832   3.376  23.741 -0.0125  0.0215  0.0649
 5778S        S12582   6.983   7.469  16.427 -0.3194  0.3359  0.0437
 5779S        S12583   4.953  11.916  19.995 -0.2274 -0.1088 -0.3072
 5780S        S12584   4.847   7.833  29.135 -0.6525 -0.2487 -0.1305
 5781S        S12585   8.261  12.046  31.409 -0.8999 -0.3041 -0.2421
 5782S        S12586   1.276   7.702  11.597  0.2065  0.0854 -0.6000
 5783S        S12587   2.139   0.501  28.690  1.1642  0.2345  0.1403
 5784S        S12588  10.299   0.203  24.397 -0.7291  0.5175  0.1227
 5785S        S12589   4.151   0.763  23.362  0.3361  0.2506  0.3917
 5786S        S12590   3.793   4.089  12.026 -0.7011 -0.6305 -0.5821
 5787S        S12591   2.570   7.093  26.007  0.6497 -0.3325 -0.4910
 5788S        S12592   9.391   9.815  22.700 -0.2909  0.8854 -0.4146
 5789S        S12593   1.552   9.681  14.162  0.2691 -0.5068  0.3602
 5790S        S12594   8.867  11.217  21.823 -0.2819  0.1513 -0.3575
 5791S        S12595   2.185   4.996  27.441 -0.0433 -0.0857  0.3034
 5792S        S12596   3.398   5.530  13.061 -0.1871  0.2483 -0.3150
 5793S        S12597   4.270   7.089  17.217 -0.5124 -0.6642  0.0222
 5794S        S12598   6.571  10.645  28.559  0.4038 -0.1293  0.2993
 5795S        S12599  12.299   9.877  27.033 -0.0352 -0.5099 -0.0407
 5796S        S12600   4.232   5.620  21.571 -0.4939 -0.0043 -0.2687
 5797S        S12601   3.438   1.031  19.731  0.0942  0.1718 -0.7348
 5798S        S12602  12.055   6.137  14.803 -0.1474 -0.0887 -0.1655
 5799S        S12603   5.584   9.468  21.526 -0.4454  0.0642 -0.1865
 5800S        S12604  10.285   1.258  25.412 -0.1777  0.2294  0.6097
 5801S        S12605  11.166  11.187  20.557  0.3823  0.2941 -0.0128
 5802S        S12606   8.688   6.097  28.736 -0.0955  0.0871 -0.1799
 5803S        S12607   5.113   6.897  15.530 -0.4681 -0.4249  0.3393
 5804S        S12608   0.275   6.321  31.227 -0.4730  0.2362 -0.0200
 5805S        S12609   1.969   6.625  12.042 -0.1070 -0.1811  0.0155
 5806S        S12610   3.849  11.965  15.016  0.0548 -0.3006 -0.1148
 5807S        S12611   3.119   0.896  12.320  0.0903  0.1782  0.1417
 5808S        S12612   7.912   8.276  15.939  0.4497 -0.8049 -0.3496
 5809S        S12613   5.438   0.717  21.154  0.4373  0.5540  0.0524
 5810S        S12614   0.196   9.164  10.854  0.2566  0.3874  0.1664
 5811S        S12615   7.659   7.586  17.130 -0.1530 -0.2719  0.1954
 5812S        S12616  12.093  10.225  19.529  0.1143  0.0231 -0.0914
 5813S        S12617   6.518  12.116  12.093 -0.1708  0.0380 -0.1251
 5814S        S12618   1.082   4.387  22.490  0.2812  0.1663  0.0055
 5815S        S12619   6.763   7.866  14.827  0.1454  0.2617 -0.0941
 5816S        S12620  11.290   2.073  11.968 -0.4550 -0.0592  0.4180
 5817S        S12621   4.885  10.973  15.817  0.3944 -0.3427  0.1893
 5818S        S12622   7.635   4.063  17.318  0.5828  0.0165 -0.3170
 5819S        S12623  10.080   9.794  23.486 -0.2294 -0.4199  0.1188
 5820S        S12624  11.498   0.618  14.055  0.1143 -0.2762  0.3890
 5821S        S12625   3.604  11.993  30.365  0.3409 -0.4380 -0.9027
 5822S        S12626  10.674   5.627  12.350 -0.0103  0.0549 -0.0302
 5823S        S12627  11.220   5.179  15.922 -0.0991  0.5763 -0.1468
 5824S        S12628   4.264   3.584  13.918 -0.0888 -0.2032  0.2050
 5825S        S12629   4.742   3.817  25.544 -0.2459  0.6044 -0.4051
 5826S        S12630   8.117   2.390  15.223 -0.4011 -0.3871 -0.2504
 5827S        S12631   4.642   3.392  16.401  0.3341  0.0559 -0.1557
 5828S        S12632   8.317   4.741  28.097  0.1671 -0.3960 -0.2787
 5829S        S12633   2.724   9.694  21.144  0.4224  0.3044  0.1458
 5830S        S12634   4.860  12.294  17.143 -0.0069 -0.1152  0.0006
 5831S        S12635   7.131   1.386  23.755  0.5571 -0.1217 -0.2508
 5832S        S12636   4.298  11.076  17.490 -0.1992  0.0842 -0.4970
 5833S        S12637  10.797   2.001  14.644  0.0012  0.0437  0.3603
 5834S        S12638   5.186   9.306  16.318 -0.3372 -0.0857  0.5047
 5835S        S12639   2.728   7.480  20.486 -0.0850  0.6513  0.0649
 5836S        S12640  11.756   1.562  32.636 -0.0698 -0.0301 -0.3647
 5837S        S12641  10.052   3.371  20.839  0.1972  0.0417  0.0798
 5838S        S12642   7.196   8.439  16.685  0.4960  0.1309 -0.0382
 5839S        S12643   8.642  11.024  23.762  0.0225 -0.3806 -0.1070
 5840S        S12644   3.401   5.145  21.213 -0.2210 -0.2379 -0.1334
 5841S        S12645   9.666   5.173  26.944  0.0375 -0.3063 -0.1889
 5842S        S12646   6.475   4.376  29.712  0.4638 -0.0296 -0.2163
 5843S        S12647   7.506  10.144  20.727 -0.0917 -0.1302 -0.0894
 5844S        S12648   7.301   5.592  29.425  0.1406 -0.1456  0.3516
 5845S        S12649   3.840   3.428   1.483  0.1399  0.0494 -0.1005
 5846S        S12650   3.044   4.585  18.979 -0.1680 -0.7247 -0.0478
 5847S        S12651   4.791   5.510  21.584 -0.2625 -0.2907  0.0650
 5848S        S12652  10.839  11.422  21.342 -0.3152 -0.4015 -0.0829
 5849S        S12653   0.635   7.998  18.422 -0.2380 -0.1510  0.5048
 5850S        S12654   1.336   1.481  17.733 -0.2550 -0.1184 -0.0785
 5851S        S12655   0.515   3.475  27.846  0.1162  0.0978  0.0966
 5852S        S12656   3.791   7.585  10.889 -0.2808  0.1230  0.6029
 5853S        S12657   5.464   2.134  28.512 -0.2289  0.1865  0.2376
 5854S        S12658   6.838   2.046  24.583 -0.9802 -0.2774 -0.2618
 5855S        S12659  11.125   3.532  21.733 -0.3728  0.2234  0.3910
 5856S        S12660   6.540  11.967  24.439 -0.4116  0.9046  0.6042
 5857S        S12661   2.948   5.945  16.795  0.2543  0.0009 -0.2093
 5858S        S12662   9.591  11.524  13.981  0.0158 -0.8300  0.4428
 5859S        S12663   7.348  11.328  20.825  0.0503 -0.1214  0.2296
 5860S        S12664   6.628   4.793  49.383  0.0582  0.0344  0.3702
 5861S        S12665   0.824   1.256  18.014  0.3333 -0.0877  0.3579
 5862S        S12666   8.278   9.504  18.718  0.2046  0.9522  0.2508
 5863S        S12667   0.460   9.428  23.630  0.5866  0.0703  0.5207
 5864S        S12668   2.675   0.102  27.963 -0.1049 -0.6017  0.3796
 5865S        S12669   3.925   6.931  29.888 -0.4773 -0.5515  0.1196
 5866S        S12670   6.809   3.301  20.232  0.2301 -0.1369 -0.0565
 5867S        S12671   2.005   1.323  18.526  0.0068  0.0394  0.0492
 5868S        S12672   2.728  12.217  19.996  0.2901 -0.6494 -0.2361
 5869S        S12673   9.306  12.178  28.524  0.0580 -0.4163  0.2870
 5870S        S12674   0.830  10.966  23.206 -0.0495 -0.2011  0.0191
 5871S        S12675   6.234   4.760  26.892  0.2196 -0.1595  0.0651
 5872S        S12676   5.498   1.211  21.890 -0.1781  0.0609 -0.4618
 5873S        S12677   0.137   0.871  16.414 -0.3493 -0.3248 -0.3327
 5874S        S12678   3.695   4.641  19.918  0.0435 -0.0710 -0.1346
 5875S        S12679   4.853   8.284  12.750 -0.0312  0.4464 -0.0094
 5876S        S12680   2.319   7.931  17.735 -0.3098 -0.0025 -0.1074
 5877S        S12681  11.160  11.448  27.015  0.2853  0.4386  0.0957
 5878S        S12682   9.424   3.156  15.995 -0.2907 -0.0998 -0.7662
 5879S        S12683   1.394   1.959  13.081 -0.1245  0.5978  0.4267
 5880S        S12684   5.742   7.156  18.624 -0.4014 -0.1756  0.4876
 5881S        S12685  12.065   4.167  23.959  0.1372  0.1317 -0.1524
 5882S        S12686   9.783  10.714  14.247 -0.1389  0.5839  0.1797
 5883S        S12687  11.342   1.073  12.941 -0.0437 -0.4245 -0.4242
 5884S        S12688   2.023  10.525  29.860 -0.4170  0.3509  0.2912
 5885S        S12689   1.206   8.215  16.108  0.2546  0.2676  0.0124
 5886S        S12690   3.514   3.232  23.400 -0.3596  0.1944 -0.1257
 5887S        S12691   9.966   4.949  20.820 -0.2487  0.2085  0.1935
 5888S        S12692   8.001   6.751  28.783 -0.2850  0.2682 -0.3921
 5889S        S12693   8.012  11.461  13.098 -0.4504  0.1823  0.7453
 5890S        S12694   5.426   6.389  47.782 -0.3182  0.1755  0.1093
 5891S        S12695   6.879   1.401  14.629 -0.0568 -0.4160  0.5502
 5892S        S12696  10.801   8.444  25.061  0.4697  0.3641  0.0621
 5893S        S12697   5.710   7.320  21.672 -0.1234 -0.2849  0.5072
 5894S        S12698   0.090  10.657  15.830 -0.1731  0.2905 -0.0404
 5895S        S12699   6.180   3.791  23.011  0.1114  0.1705  0.3424
 5896S        S12700  10.655   6.886  22.907  0.1907 -0.1611  0.6916
 5897S        S12701   0.637   1.608  27.268  0.2377  0.3864 -0.2026
 5898S        S12702   6.305   9.031  17.027  0.0871 -0.1997  0.5642
 5899S        S12703   4.499  11.393  12.813  0.1293  0.2988  0.1292
 5900S        S12704   7.511   2.201  11.484 -0.0992 -0.3159  0.4448
 5901S        S12705   8.528   4.783  25.462  0.0437 -0.4449 -0.0965
 5902S        S12706   8.075   6.681  26.661  0.4720  0.4592 -0.0579
 5903S        S12707  11.786  10.235  11.068  0.0395 -0.3791 -0.0194
 5904S        S12708   0.812  10.534  26.769 -0.2975 -0.5285 -0.5043
 5905S        S12709   7.212  11.120  26.764 -0.5152 -0.1444 -0.0771
 5906S        S12710   3.733   2.325  33.086  0.2919  0.3957 -0.4126
 5907S        S12711  10.113   9.683  18.625  0.0203  0.3487  0.2842
 5908S        S12712  10.527   0.063  25.281  0.5667 -0.1785  0.1087
 5909S        S12713   3.591   6.421  17.024 -0.1196  0.0559 -0.3391
 5910S        S12714   8.017  11.610  18.763  0.3224  0.0641  0.4234
 5911S        S12715   2.479   4.405  25.371 -0.0639 -0.1204  0.0367
 5912S        S12716   7.176   5.927  13.965 -0.0934 -0.8422  0.0126
 5913S        S12717  10.809   9.814  28.172  0.5214  0.3836  0.3268
 5914S        S12718  11.289   0.044  25.633  0.3089  0.4208 -0.6534
 5915S        S12719   9.337   2.643  20.705  0.0474 -0.2859  0.5914
 5916S        S12720   2.306   6.632  16.688  0.0303 -0.2832  0.2808
 5917S        S12721  10.294   0.769  17.149 -0.3425 -0.1913  0.1155
 5918S        S12722  12.315   1.277  24.222  0.7413  0.1722  0.1092
 5919S        S12723   4.352   0.330  27.621  0.6686 -0.3633  0.3423
 5920S        S12724   7.511   1.337  15.701  0.4970  0.0311  0.3918
 5921S        S12725   6.405   4.913  20.224 -0.3258  0.0450 -0.3585
 5922S        S12726   3.840  12.248  30.793  0.1847 -0.2903  0.0573
 5923S        S12727   2.480  10.190  19.895  0.0447 -0.1679  0.2821
 5924S        S12728   5.606   8.785  25.678 -0.0784 -0.0626 -0.0661
 5925S        S12729  12.317   5.385  17.674 -0.0688  0.0915  0.3260
 5926S        S12730   7.867   5.313  11.012 -0.0120 -0.2374 -0.2269
 5927S        S12731   4.697   6.916  20.961  0.1539  0.0441 -0.4530
 5928S        S12732   6.732  11.125  27.015 -0.2136  0.2072  0.1648
 5929S        S12733   0.868   2.749  18.841 -0.2388 -0.2116  0.1008
 5930S        S12734   0.860   0.263  27.062  0.0235 -0.3698 -0.0871
 5931S        S12735   7.041  11.011  29.968  0.2150  0.1514  0.3724
 5932S        S12736  10.185   1.633  13.757  0.2105 -0.1691  0.1871
 5933S        S12737   1.559  11.107  26.753 -0.2570 -0.3480 -0.2704
 5934S        S12738   3.131   0.025  20.261 -0.2567 -0.2585 -0.5502
 5935S        S12739   9.124   8.352  21.074  0.3869  0.0383 -0.4148
 5936S        S12740   0.274   5.891  18.648 -0.2875 -0.9480  0.1547
 5937S        S12741   0.877   7.880  21.713  0.9278 -0.2592 -0.2445
 5938S        S12742   3.895   4.873  15.450  0.2448 -0.0322  0.0606
 5939S        S12743  11.497   4.481  14.825 -0.3381  0.2740  0.2119
 5940S        S12744  12.247   6.876  15.498  0.0972 -0.1042 -0.0850
 5941S        S12745  10.883   4.946  22.031  0.0629 -0.1078  0.3007
 5942S        S12746   3.653   5.016  12.275  0.0716  0.2345  0.1806
 5943S        S12747   7.844   3.980  20.077  0.0623 -0.3323  0.0440
 5944S        S12748   7.456   2.440   9.837 -0.0907 -0.2838  0.1188
 5945S        S12749   0.834   3.760  14.196  0.4500 -0.2358  0.0363
 5946S        S12750   9.229   2.504  13.878 -0.0912 -0.4528 -0.2085
 5947S        S12751  12.009  11.689  15.919 -0.2354  0.4985 -0.1477
 5948S        S12752   9.279   3.104  18.657 -0.0846 -0.1449  0.7596
 5949S        S12753   0.470  12.142  28.483 -0.1302  0.5336  0.2787
 5950S        S12754   5.732   7.182  48.025  0.5443  0.5886 -0.0959
 5951S        S12755   9.396   0.543  12.808  0.3377 -0.0010  0.0136
 5952S        S12756   9.074   0.190  16.324  0.1915 -0.1925  0.4876
 5953S        S12757   8.271   4.599  13.088 -0.0959 -0.4922 -0.5180
 5954S        S12758  11.706   6.497  20.991  0.4407 -0.2929 -0.3353
 5955S        S12759   5.676   5.082  21.567 -0.3249 -0.0249 -0.0605
 5956S        S12760  11.027   5.655  16.921  0.2390 -0.1362  0.3290
 5957S        S12761  11.622   0.942  17.501 -0.5469  0.1036 -0.1480
 5958S        S12762   7.683   1.484  19.910  0.2670  0.1877  0.0465
 5959S        S12763   1.261   8.100  13.485 -0.0334  0.1937 -0.3412
 5960S        S12764   6.799   1.102  12.459  0.0022  0.3607 -0.4498
 5961S        S12765   2.490   0.637  31.624 -0.3965 -0.4213 -0.1613
 5962S        S12766   6.979   1.643  15.143 -0.0188  0.1511  0.0774
 5963S        S12767   1.104  10.756  29.388  0.7989  0.0201  0.2174
 5964S        S12768  10.371   8.343  19.520 -0.1606  0.1315 -0.3304
 5965S        S12769  11.230   5.358  13.141 -0.1730  0.3524 -0.1260
 5966S        S12770   9.020   4.709  18.634 -0.2325 -0.1204  0.1830
 5967S        S12771   9.062   9.810  25.802 -0.3019 -0.3577 -0.2245
 5968S        S12772   7.335   6.991  15.470 -0.0740  0.5692 -0.0206
 5969S        S12773  11.944   0.725   3.323  0.0045  0.1939 -0.1177
 5970S        S12774   3.114   7.016  16.259  0.3826 -0.5364 -0.0541
 5971S        S12775   8.860   5.187  17.667  0.3135 -0.2874 -0.2368
 5972S        S12776  11.964   3.330  20.625  0.0996  0.0226  0.3199
 5973S        S12777   6.694   6.167  19.810 -0.2676 -0.0364  0.0966
 5974S        S12778   7.463   3.739  26.950  0.0905  0.1341 -0.0263
 5975S        S12779   7.267   4.676  19.123 -0.6923 -0.5863 -0.1937
 5976S        S12780   6.123   4.417  24.248  0.3972 -0.1852  0.1239
 5977S        S12781   3.149   4.299  26.563 -0.2985  0.4755  0.0378
 5978S        S12782   0.981   3.931  24.307  0.6304  0.1238  0.4579
 5979S        S12783   7.657  11.212  27.271  0.0100 -0.6425  0.3393
 5980S        S12784   9.590   4.733  25.353 -0.3152  0.0306 -0.0961
 5981S        S12785   5.547   3.109  47.307 -0.3463  0.2185  0.4371
 5982S        S12786  11.285   4.434  34.259  0.6193 -0.3749  0.5997
 5983S        S12787   6.325  11.328  30.518 -0.4218  0.4162 -0.8419
 5984S        S12788   5.971   1.103  18.778 -0.1431 -0.0018  0.1531
 5985S        S12789   8.683   0.620  12.216 -0.2467  0.1282  0.0996
 5986S        S12790   8.369   9.207  24.266  0.4708  0.1316  0.1790
 5987S        S12791   9.256   1.930  28.293  0.2813 -0.2235 -0.2874
 5988S        S12792   4.551   6.404  29.584  0.0435  0.2500 -0.3259
 5989S        S12793   0.991  12.296  23.637  0.0944  0.3906 -0.2123
 5990S        S12794   9.787   0.277  20.128  0.1671 -0.3590  0.2473
 5991S        S12795   3.514  10.028  14.058  0.4159  0.1703  0.2384
 5992S        S12796   3.790   3.146  22.964  0.4728  0.2899 -0.1710
 5993S        S12797  10.104   4.890  14.783 -0.1977  0.2181  0.1715
 5994S        S12798   7.202   2.645  24.809 -0.4254  0.0194 -0.1605
 5995S        S12799   9.682   2.359  26.009  0.0185  0.0009  0.0366
 5996S        S12800   9.700   5.799  16.223 -0.3659 -0.1187 -0.8145
 5997S        S12801   5.771   7.488  24.089 -0.2189 -0.3715  0.8903
 5998S        S12802   5.789   7.881  21.494  0.0214  0.4844  0.1030
 5999S        S12803   3.849   6.714  23.441 -0.0073 -0.0197 -0.1404
 6000S        S12804   6.571   9.323  28.411 -0.3712  0.1028 -0.0791
 6001S        S12805   3.373   0.270  31.028  0.2750  0.1285  0.4526
 6002S        S12806   8.814   1.209  29.858 -0.4247 -0.3992 -0.5854
 6003S        S12807  11.410   8.704  12.877  0.2265 -0.0665 -0.0491
 6004S        S12808  10.201   9.032  28.410 -0.0180  0.1942  0.2304
 6005S        S12809   5.461   4.118  21.416 -0.4469  0.0280 -0.2782
 6006S        S12810   4.971   5.497  20.866 -0.3564  0.0098  0.1613
 6007S        S12811   7.937  11.975   5.654  0.0391  0.0239  0.1174
 6008S        S12812   0.169   7.182  14.432  0.7001 -0.1838  0.0627
 6009S        S12813   1.542   8.084  11.320  0.0823 -0.1766  0.0660
 6010S        S12814   8.460   1.574  26.566  0.3335  0.1279 -0.3114
 6011S        S12815  11.695   7.941  18.141 -0.5769 -0.2289 -0.5752
 6012S        S12816   2.762   4.037  24.671 -0.5329  0.6819  0.1075
 6013S        S12817   0.602   7.351  14.146  0.1052 -0.0345 -0.0265
 6014S        S12818   8.887   5.022  21.619 -0.3960 -0.4005  0.4055
 6015S        S12819   2.591   7.807  27.215  0.2061 -0.3490 -0.1962
 6016S        S12820   2.744  11.310  27.037  0.3906 -0.6405 -0.0340
 6017S        S12821   8.319  11.008  16.009 -0.1416 -0.5031  0.0383
 6018S        S12822  10.413   1.927  18.279 -0.2498 -0.0801  0.4815
 6019S        S12823  11.686   0.046  33.449  0.5883 -0.3057 -0.0675
 6020S        S12824   8.373   6.909  24.157  0.0862 -0.0134 -0.0722
 6021S        S12825   3.589   7.839  30.081  0.4561 -0.2731 -0.4784
 6022S        S12826  11.014  11.385  16.888 -0.3247 -0.0335 -0.3983
 6023S        S12827   0.029   9.783  19.458 -0.1829  0.2452  0.1431
 6024S        S12828   6.222   1.510  14.579 -0.1145 -0.0198  0.7009
 6025S        S12829   2.963   6.171  28.810 -0.1362  0.1808  0.0166
 6026S        S12830  10.120   2.947  19.417 -0.3968 -0.0879  0.0625
 6027S        S12831   7.739   2.267  19.727 -0.4698 -0.1814 -0.2483
 6028S        S12832   2.443   8.303  14.829 -0.0363 -0.3265 -0.4340
 6029S        S12833   8.938   8.226  16.098 -0.1215 -0.1031  0.0738
 6030S        S12834  12.203   7.684  17.130  0.1950  0.7193  0.2715
 6031S        S12835   9.509  10.727  30.330  0.2381  0.3437 -0.4375
 6032S        S12836   5.063   4.056  19.921 -0.1626  0.2226 -0.1187
 6033S        S12837   8.082  10.225  25.060  0.3155 -0.0811 -0.2713
 6034S        S12838   8.083   9.170  12.273 -0.2912 -0.1116  0.2396
 6035S        S12839   9.762   4.420  29.032 -0.0968 -0.0193  0.7870
 6036S        S12840   8.176   8.853  24.626 -0.0386  0.1879  0.2556
 6037S        S12841   5.829   3.951  11.339  0.1257 -0.3730  0.1295
 6038S        S12842   6.707   9.308  11.076 -0.1124 -0.1487 -0.3279
 6039S        S12843  10.100  12.225  25.451  0.0553 -0.3509 -0.1014
 6040S        S12844   4.302   6.804  15.744  0.0456 -0.4648 -0.1679
 6041S        S12845   8.519   6.946  16.408 -0.2158  0.4702 -0.2275
 6042S        S12846   7.033   4.903  22.664 -0.5594 -0.0168 -0.1357
 6043S        S12847   4.388  11.102  27.827 -0.5449 -0.4108 -0.6709
 6044S        S12848   8.791   1.500  27.441  0.3751 -0.4054 -0.2914
 6045S        S12849  11.255   4.674  15.720  0.0900  0.6113  0.2714
 6046S        S12850   0.764   2.856  21.895 -0.2314  0.2040  0.2476
 6047S        S12851   4.257  11.421  28.649  0.0529 -0.2030  0.0824
 6048S        S12852   3.290   6.503  30.603  0.2148 -0.3974 -0.1707
 6049S        S12853   0.803   3.882  26.477 -0.0971 -0.2074 -0.0874
 6050S        S12854   5.520   7.074  24.252  0.2577 -0.1134 -0.2221
 6051S        S12855   9.542   7.399  13.529  0.8013 -0.2254  0.6435
 6052S        S12856   5.897  11.810  12.733  0.4348 -0.3391  0.0826
 6053S        S12857   9.023   1.914  29.681 -0.7913 -0.0204  0.7479
 6054S        S12858   0.500   2.080  27.256 -0.1208  0.1762 -0.0083
 6055S        S12859   3.150   0.431  13.052  0.6557 -0.3041  0.1212
 6056S        S12860   3.313   0.065  18.515 -0.1981 -0.5870  0.0677
 6057S        S12861   7.795   2.475  17.107 -0.3366 -0.3664 -0.4225
 6058S        S12862  11.980   4.513  22.830 -0.0252  0.5413  0.2563
 6059S        S12863   4.411   4.262  29.317  0.4416  0.9974  0.0791
 6060S        S12864  12.116   8.810  15.319 -0.5117  0.2617  0.2743
 6061S        S12865   1.380  10.073  10.706 -0.0324 -0.0522  0.1758
 6062S        S12866   8.025   1.336  26.718 -0.2910  0.3157 -0.1780
 6063S        S12867   8.684   2.199  16.289 -0.2652  0.1303  0.3771
 6064S        S12868   2.796   7.325   7.715  0.2395  0.3022  0.2594
 6065S        S12869   3.730   3.898  30.059  0.5036  0.3796  0.6289
 6066S        S12870   5.084  11.623  25.693  0.5167 -0.3445 -0.4912
 6067S        S12871  11.394   9.078  21.697 -0.0595 -0.3384 -0.0824
 6068S        S12872   0.062   0.963  18.728 -0.2380  0.1586  0.0051
 6069S        S12873   9.695   4.369  29.770  0.0888  0.1484  0.3700
 6070S        S12874   9.847   2.418  33.918  0.1791  0.3431  0.5649
 6071S        S12875   8.421   3.025  20.864  0.0364 -0.6859 -0.4205
 6072S        S12876   7.411   7.931  26.060  0.4760 -0.5390  0.0099
 6073S        S12877   0.696  11.737  27.431 -0.2568  0.2155  0.0151
 6074S        S12878   7.369   1.399  22.925  0.1753 -0.5859  0.6091
 6075S        S12879   5.841   8.732  39.381  0.1874 -0.1492  0.0537
 6076S        S12880   4.002   0.840  12.758  0.2061 -0.3781 -0.4588
 6077S        S12881   9.656   2.373  15.211  0.1499  0.3097 -0.2325
 6078S        S12882   9.103   6.049  15.408 -0.2918  0.0029  0.1867
 6079S        S12883   5.793  11.218  29.356 -0.2253 -0.0713 -0.5758
 6080S        S12884   6.078  10.849  19.033 -0.3621 -0.4420 -0.3621
 6081S        S12885   9.930   2.153  28.646  0.0028 -0.1950  0.1783
 6082S        S12886   1.391   4.330  13.761 -0.3292 -0.1011 -0.4865
 6083S        S12887   2.926   8.162   3.899  0.3625  0.2466  0.5462
 6084S        S12888   6.891   7.078  13.266  0.1047  0.2205 -0.5159
 6085S        S12889   5.884  10.397  31.672  0.7673 -0.0236 -0.0053
 6086S        S12890   6.605   2.111  17.838 -0.0550  0.6766  0.0246
 6087S        S12891   2.264   7.704  22.255 -0.5541  0.1571  0.1874
 6088S        S12892  10.989   8.637  24.531 -0.3019  0.2109  0.1039
 6089S        S12893  10.960  12.318  15.938 -0.1090 -0.1000 -0.0521
 6090S        S12894   3.205  10.402  19.356 -0.2154  0.2830  0.5822
 6091S        S12895   8.353   0.086  28.898  0.0393  0.3578 -0.3841
 6092S        S12896   2.571   7.759  47.687 -0.1920  0.2306  0.1830
 6093S        S12897   4.403   5.329  19.358 -0.0706 -0.1198  0.1518
 6094S        S12898   9.080   9.725  20.449 -0.2376 -0.3686  0.2674
 6095S        S12899   0.112  12.359  18.211  0.1730 -0.0681  0.3034
 6096S        S12900   6.567   8.972  12.091 -0.7481  0.8978 -0.2526
 6097S        S12901   3.623   9.723  17.822 -0.4353  0.1606  0.2865
 6098S        S12902   7.954   8.631  14.198  0.2229  0.4818 -0.2148
 6099S        S12903   0.373   5.565  28.075 -0.1946 -0.0039 -0.6348
 6100S        S12904   2.099  11.911  16.055  0.0138  0.2199 -0.4051
 6101S        S12905  10.137   0.479  20.432  0.0376 -0.1252  0.4536
 6102S        S12906  11.289  12.019  16.415 -0.7470  0.4112 -0.0541
 6103S        S12907   5.372   7.094  19.427  0.0694 -0.1919 -0.2804
 6104S        S12908   5.170   7.585  29.796  0.1872 -0.2700 -0.2666
 6105S        S12909   7.040   0.886  15.638 -0.3540 -0.1342  0.3506
 6106S        S12910   9.347   6.842   0.196 -0.2624 -0.1086  0.0911
 6107S        S12911   9.612   2.571  13.047  0.2398  0.1906  0.6918
 6108S        S12912   4.631  11.787  28.561 -0.0227 -0.4832  0.1181
 6109S        S12913   0.341   7.325  28.052 -0.1614  0.1097  0.2372
 6110S        S12914   6.365  10.050  47.338  0.2123  0.0815  0.2981
 6111S        S12915   5.850   1.415  29.227  0.5146 -0.0649  0.0451
 6112S        S12916   9.746   7.029  27.988 -0.4918  0.1793  0.3064
 6113S        S12917   3.358  10.902  29.510 -0.0525  0.0637  0.4049
 6114S        S12918   2.898   5.752  20.718 -0.1851  0.1430  0.1505
 6115S        S12919   6.005  10.491  20.220 -0.0003 -0.1418  0.1416
 6116S        S12920   3.830   3.783  16.293 -0.0671  0.0018  0.4251
 6117S        S12921   4.443   1.634  19.988 -0.5509 -0.3464  0.4193
 6118S        S12922  10.380   4.087  23.325 -0.2448  0.0303  0.1758
 6119S        S12923   0.961  10.389  15.847 -0.2691  0.0318 -0.0109
 6120S        S12924   6.999   4.780  26.212  0.0685 -0.3264 -0.3173
 6121S        S12925  10.593   5.795  21.401 -0.6673 -0.0107  0.0238
 6122S        S12926   2.403   2.816  41.184 -0.1117 -0.0063  0.0701
 6123S        S12927   1.076   1.362  23.071  0.3342 -0.0390  0.3274
 6124S        S12928  10.106   5.746  19.287  0.3393  0.7308  0.4834
 6125S        S12929   2.278   5.673  26.159 -0.2330  0.1122  0.1172
 6126S        S12930   7.763  12.269  12.856 -0.0182  0.3503  0.3846
 6127S        S12931   2.052   3.640  13.669  0.0361 -0.2166 -0.2392
 6128S        S12932   2.770   1.503  17.603 -0.2415  0.0050 -0.5367
 6129S        S12933   4.819   8.823  47.360  0.1892 -0.1838  0.0570
 6130S        S12934   6.495   3.748  23.840  0.2521  0.1424 -0.3749
 6131S        S12935   8.832   3.798  23.073  0.2390 -0.3313  0.2223
 6132S        S12936   2.854  11.694  11.907 -0.1309  0.1440 -0.2624
 6133S        S12937   5.447   3.471  25.018  0.2306 -0.2346  0.0684
 6134S        S12938   0.029  10.194  11.781  0.0216  0.3198 -0.0313
 6135S        S12939  11.728   6.109  30.851 -0.0454 -0.2622 -0.1344
 6136S        S12940   8.190   8.388  15.552 -0.1116  0.0764 -0.1883
 6137S        S12941   4.649   3.262  23.121  0.0673 -0.0569 -0.1530
 6138S        S12942   9.236   4.116  21.877 -0.3178 -0.2020  0.1341
 6139S        S12943  11.048  11.418  17.487 -0.5822 -0.1065  0.7194
 6140S        S12944   5.169   2.812  26.728  0.1200  0.1209  0.1030
 6141S        S12945   2.822  10.349  27.938 -0.2782 -0.0889 -0.0550
 6142S        S12946   3.455   0.002  13.877  0.0013 -0.4879  0.2198
 6143S        S12947   9.773  12.087  25.951 -0.3227 -0.2887  0.0912
 6144S        S12948   1.406  12.095  23.265 -0.0009 -0.2468 -0.8257
 6145S        S12949   1.611   8.934   4.560 -0.2042  0.2466  0.1124
 6146S        S12950   9.437   6.049  17.360  0.1784  0.2522  0.3691
 6147S        S12951   4.800   3.060  17.854  0.4393  0.1028 -0.2356
 6148S        S12952   2.144   3.515  27.607 -0.4923  0.4570  0.1319
 6149S        S12953   1.047  11.279  22.845  0.3740 -1.0626  0.2730
 6150S        S12954   4.300  10.320  26.057  0.5635  0.3118 -0.9665
 6151S        S12955   7.966   3.943  14.689 -0.0532  0.0805  0.0517
 6152S        S12956   3.030   1.257  14.625 -0.1822 -0.0149  0.5416
 6153S        S12957  10.146   2.338  17.509  0.2604  0.4037  0.2366
 6154S        S12958   1.884   4.435  15.579 -0.3528 -0.0341  0.4313
 6155S        S12959   0.539   8.234  23.893 -0.0692 -0.5921  0.3388
 6156S        S12960   0.430   4.489  26.877  0.5131  0.1581 -0.8184
 6157S        S12961   1.803   1.348  47.212 -0.0707 -0.0226  0.4201
 6158S        S12962   7.236   1.373  28.390 -0.3016  0.1907 -0.9131
 6159S        S12963   1.823   0.612  12.004 -0.0124 -0.3830 -0.0141
 6160S        S12964   1.853  12.003  29.170  0.6165 -0.6507  0.0326
 6161S        S12965   1.145   8.744  24.916 -0.5829 -0.2820  0.3128
 6162S        S12966   4.021   2.565  16.671 -0.0926  0.1700  0.1240
 6163S        S12967   5.572  12.180  29.422 -0.3457 -0.1457  0.7076
 6164S        S12968   4.444   6.028  27.192 -0.1421  0.1139  0.2672
 6165S        S12969   6.488   4.868  24.444  0.1365 -0.1334  0.0377
 6166S        S12970   9.110   4.826  14.315  0.1454  0.2027 -0.1275
 6167S        S12971   7.852   8.267   3.374  0.0628 -0.3108  0.4632
 6168S        S12972   2.310   8.618  30.554 -0.3011  0.0091 -0.0267
 6169S        S12973   2.961   2.752  13.241 -0.2610 -0.4587  0.2964
 6170S        S12974  10.013   0.455  26.590 -0.0823  0.0314 -0.2970
 6171S        S12975   0.356   5.716  32.239  0.6066  0.1303  0.3043
 6172S        S12976   6.662   7.040  24.121 -0.0619  0.3873 -0.1377
 6173S        S12977   3.959   8.668  23.215 -0.2116 -0.3931 -0.3310
 6174S        S12978   2.018   9.771  13.084  0.4380  0.6381 -0.0250
 6175S        S12979   4.692  12.292  26.361  0.2746 -0.3764 -0.1001
 6176S        S12980   1.254   8.777  15.860  0.7115 -0.2292 -0.3390
 6177S        S12981   0.585   1.666  31.677 -0.3198 -0.1509  0.3765
 6178S        S12982   1.614   8.050  17.172  0.0243  0.0512 -0.0873
 6179S        S12983   5.854   2.384  14.219  0.3079 -0.9085  0.5292
 6180S        S12984   4.143   2.204  22.197 -0.0986  0.0347 -0.0779
 6181S        S12985   8.076   7.225  14.390 -0.2648 -0.0219  0.0623
 6182S        S12986   2.863   7.986  31.963  0.0937 -0.4373 -0.1138
 6183S        S12987   2.022   8.335  22.493  0.5828 -0.1142 -0.0277
 6184S        S12988   9.655   7.908  13.655 -0.0293 -0.0606  0.0701
 6185S        S12989  10.856   7.051  15.970 -0.1135 -0.2351 -0.2079
 6186S        S12990   1.987  10.885  28.877  0.2110  0.3492  0.0658
 6187S        S12991  10.086   2.814  25.871  0.2565 -0.0798 -0.1221
 6188S        S12992   4.121   3.118  24.638  0.1506 -0.0110  0.3117
 6189S        S12993   9.442   0.954  11.215  0.3572 -0.1551  0.0467
 6190S        S12994   4.515   5.337  16.999 -0.0500 -0.2488  0.2719
 6191S        S12995   1.765   9.733  19.718  0.3450 -0.1806 -0.5184
 6192S        S12996  10.461  11.758  23.520 -0.4097 -0.1044 -0.3823
 6193S        S12997   5.400   3.591  14.517  0.2505 -0.0348  0.5363
 6194S        S12998   4.851   1.534  21.170  0.2445 -0.3697 -0.1757
 6195S        S12999   8.006   7.270  11.724  0.2160 -0.4038  0.5488
 6196S        S13000   6.470   2.640  26.619  0.2622  0.8774 -0.3913
 6197S        S13001   9.022   3.911  30.292 -0.8637  0.3238 -0.4980
 6198S        S13002   0.599  10.020  31.594 -0.7558 -0.0004  0.8110
 6199S        S13003  10.627  10.265  14.452 -0.2688  0.4649  0.0623
 6200S        S13004   6.983  11.715  22.729 -0.1595 -0.1925 -0.2255
 6201S        S13005  10.623   5.730  12.882  0.3235 -0.0450 -0.4323
 6202S        S13006   1.003   9.162  24.497  0.4454  0.4359 -0.4186
 6203S        S13007   6.536   0.479  21.195  0.0042 -0.4028  0.4561
 6204S        S13008   4.869   0.353  25.624 -0.1301 -0.2859  0.0677
 6205S        S13009  10.952   8.306  22.941  0.0595 -0.5225 -0.6251
 6206S        S13010   5.994   2.672  31.747 -0.4180  0.4126  0.2713
 6207S        S13011   4.315   8.234  19.495  0.3185  0.0166 -0.2556
 6208S        S13012   7.689   7.957  46.980  0.0395  0.1356  0.3466
 6209S        S13013   6.301   7.753  22.021  0.4478 -0.2455 -0.0039
 6210S        S13014   9.860   3.204  27.199 -0.2969  0.2619 -0.3408
 6211S        S13015   4.810   0.427  26.808 -0.1109  0.1354 -0.1862
 6212S        S13016   4.523   1.527  21.650 -0.1842  0.2213 -0.1431
 6213S        S13017   7.642   0.413  12.598 -0.4208  0.6425 -0.0592
 6214S        S13018   9.098   8.137  20.594 -0.3292 -0.2674 -0.0445
 6215S        S13019   6.668  11.558  22.144 -0.2090  0.1342 -0.1188
 6216S        S13020   4.884   0.813  34.845 -0.3943 -0.4326  0.4884
 6217S        S13021   5.762   8.381  29.356 -0.4313  0.3460 -0.6004
 6218S        S13022   9.863   4.578  23.479  0.0954 -0.2986  0.3358
 6219S        S13023   4.884  11.771  27.611 -0.1910 -0.0972 -0.3524
 6220S        S13024  11.883   7.558  15.594 -0.1982  0.1504  0.1437
 6221S        S13025   2.490   7.486  23.606 -0.1889 -0.7439  0.1159
 6222S        S13026   7.238   6.187  17.526  0.4536  0.2769 -0.3678
 6223S        S13027   0.484   8.954  18.730  0.2087  0.0464  0.3235
 6224S        S13028   7.997   4.696  18.405  0.1545 -0.0917 -0.0339
 6225S        S13029   9.854   3.973  13.287  0.0095  0.0847  0.1468
 6226S        S13030   1.279   0.740  20.968 -0.1046  0.2214 -0.1969
 6227S        S13031   6.611   2.846  11.246  0.1779 -0.3949  0.6898
 6228S        S13032   9.161   4.994  12.043 -0.0258  0.0797 -0.2108
 6229S        S13033   1.625  11.464   4.022 -0.1686  0.0820  0.0639
 6230S        S13034   7.330   9.453  16.685  0.5299  0.3346  0.3605
 6231S        S13035  11.528   5.851  13.817  0.2878 -0.1311 -0.5432
 6232S        S13036   4.311   4.125  27.791  0.0444 -0.2195  0.0443
 6233S        S13037   3.485   4.244  16.565 -0.3660  0.6917 -0.3322
 6234S        S13038   7.734  10.510  25.301  0.4297  0.6523 -0.0717
 6235S        S13039   7.784   1.995  16.700  0.4330  0.4535 -0.0855
 6236S        S13040   9.539   3.391  18.018  0.0600  0.2635 -0.1443
 6237S        S13041   1.260  10.354  24.582 -0.2778  0.0078  0.0029
 6238S        S13042   1.384   0.253  28.234  0.3493  0.4266  0.0681
 6239S        S13043   9.030   4.293  47.238 -0.2093  0.0806  0.1711
 6240S        S13044   2.652   2.844  25.021 -0.1958 -0.1655 -0.1312
 6241S        S13045   3.348   9.755  13.554  0.2908  0.3251  0.2983
 6242S        S13046   6.649   8.204  20.172 -0.4360 -0.1621 -0.1900
 6243S        S13047   9.467  10.083  28.962 -0.5681 -0.1983  0.3907
 6244S        S13048   8.653   3.267  17.263  0.3294 -0.0884  0.0514
 6245S        S13049   3.709   2.176  19.637  0.1712  0.2093  0.3016
 6246S        S13050   9.757   4.926  11.595  0.3184 -0.5950  0.1352
 6247S        S13051   8.659  11.344  13.811  0.5284 -0.3713 -0.0599
 6248S        S13052   5.767  10.703  18.544  0.5073  0.2039  0.6130
 6249S        S13053   8.804   4.742  13.817  0.6346  0.0049  0.1279
 6250S        S13054   2.572   0.994  17.677 -0.4861 -0.0296  0.0431
 6251S        S13055   0.531   0.527  34.683 -0.7117  0.3086  0.3205
 6252S        S13056  10.345   8.891  29.031  0.0228  0.2592  0.0041
 6253S        S13057   1.460   0.299  24.512  0.1392  0.4706  0.4417
 6254S        S13058   7.743   5.961  18.934  0.2811  0.0032 -0.2010
 6255S        S13059   6.090  12.038  26.543  0.7173  0.4052 -0.0381
 6256S        S13060   0.586   1.203  16.155  0.1432  0.7297  0.0220
 6257S        S13061   9.579   6.913  16.800 -0.1950 -0.2475  0.3680
 6258S        S13062   5.611   6.541  27.246 -0.3341  0.5812 -0.3387
 6259S        S13063   7.337   7.789  22.084  0.3688  0.5358 -0.0154
 6260S        S13064  11.855   2.984  17.157  0.5264 -0.4945  0.2657
 6261S        S13065   2.451   2.345  17.128  0.5884  0.1862 -0.0289
 6262S        S13066   7.914  11.007  14.914  0.4058  0.1976 -0.4113
 6263S        S13067   8.596   9.219  14.644 -0.4024 -0.0707 -0.0634
 6264S        S13068   0.056  12.158  12.021 -0.0260  0.0989  0.3831
 6265S        S13069   1.972   2.643  18.070 -0.2423  0.1770 -0.6555
 6266S        S13070   7.198   5.608  12.107 -0.3375  0.0904  0.2994
 6267S        S13071   5.216  12.107  22.167  0.2565  0.3709  0.3272
 6268S        S13072   7.572   8.454  28.730  0.5152  0.4179 -0.2021
 6269S        S13073   0.006   2.363  33.734  0.5122  0.1501 -0.2919
 6270S        S13074   6.697   0.185  23.792 -0.0991 -0.4516  0.2686
 6271S        S13075   2.315   9.394  31.004  0.2267 -0.2956 -0.1929
 6272S        S13076   4.321  10.314  17.244 -0.5898  0.1805 -0.0525
 6273S        S13077   8.535  11.313  17.896 -0.0129 -0.0970 -0.7636
 6274S        S13078   0.145   5.529  20.214  0.2590 -0.0768 -0.2608
 6275S        S13079  11.362   1.919  26.007 -0.2003 -0.4729 -0.3920
 6276S        S13080   3.027   1.735  21.702  0.7361 -0.2585 -0.2005
 6277S        S13081  10.046   3.383  25.004  0.8035 -0.4395 -0.5925
 6278S        S13082   7.686   0.772  30.778 -0.4744 -0.3068  0.1553
 6279S        S13083   7.413   2.826  14.275  0.3735 -0.0718  0.1468
 6280S        S13084   8.803   9.111  18.790 -0.0970  0.2119 -0.2746
 6281S        S13085   4.461   2.224  17.331  0.0455 -0.4153  0.1094
 6282S        S13086   2.980   7.979  16.143 -0.1502 -0.1606 -0.0323
 6283S        S13087   5.982   0.138  14.610 -0.0497  0.1982  0.2673
 6284S        S13088  10.570   9.586  19.731 -0.0477 -0.2818  0.1691
 6285S        S13089  10.344   1.749  24.872  0.2435  0.1161 -0.2007
 6286S        S13090   6.719   8.963  27.991 -0.1440 -0.4916 -0.2865
 6287S        S13091  11.034  11.069  13.539 -0.5925  0.4257 -0.4500
 6288S        S13092  10.933   3.514  23.883  0.5281 -0.1394  0.4638
 6289S        S13093   9.773  11.550  27.282 -0.4246 -0.1654 -0.6426
 6290S        S13094   7.206   8.428  13.833 -0.1508 -0.3883 -0.1255
 6291S        S13095   7.846   8.196  28.300  0.1229  0.4503  0.2171
 6292S        S13096   8.983   8.134  18.394 -0.3630 -0.0110 -0.5301
 6293S        S13097  11.381   1.186  12.048  0.3866  0.5718 -0.0148
 6294S        S13098   0.936   1.020  26.580  0.2216 -0.0793  0.0751
 6295S        S13099   6.449   8.828  26.807 -0.1278 -0.2025  0.2805
 6296S        S13100   8.528   5.414  23.264 -0.1941 -0.2105 -0.4270
 6297S        S13101  10.044   7.181  13.269 -0.0030  0.1072 -0.2018
 6298S        S13102   9.372   7.726  34.155  0.4469 -0.6037 -0.9169
 6299S        S13103   2.099   0.346  24.932  0.5841  0.0033  0.2066
 6300S        S13104   7.847  11.327  18.403 -0.3758  0.2315 -0.1635
 6301S        S13105   5.113   9.830   9.635 -0.2091 -0.1599 -0.0963
 6302S        S13106   1.783   8.953  25.074  0.0475 -0.1618 -0.2737
 6303S        S13107   6.837   7.296  19.086  0.3483  0.1764 -0.0858
 6304S        S13108   3.639   5.499  32.086 -0.8218  0.1787 -0.5373
 6305S        S13109   7.623   6.140  14.128  0.0024 -0.2430 -0.1128
 6306S        S13110   3.919   0.496  18.079  0.0322 -0.7123  0.1515
 6307S        S13111   1.881   2.691  26.332 -0.5064  0.2512  0.0988
 6308S        S13112   5.482   8.381  22.729 -0.2901 -0.1484  1.1679
 6309S        S13113   1.925   8.231  23.728 -0.5309 -0.1022  0.8189
 6310S        S13114   8.958   6.876  24.036 -0.2538  0.3329  0.0823
 6311S        S13115   5.891   5.894  30.299  0.4684 -0.0191 -0.0600
 6312S        S13116  11.411   9.987  32.204 -0.3383 -0.8566  0.2051
 6313S        S13117   9.932   1.130  16.000 -0.1848  0.0367  0.2250
 6314S        S13118   7.741   9.200  28.049  0.1297 -0.4525 -0.0993
 6315S        S13119   2.133  11.129  23.575 -0.2665  0.3256 -0.0960
 6316S        S13120   8.699   7.693  13.665  0.1834  0.4305 -0.4513
 6317S        S13121   4.515   7.467  29.149  0.0224  0.0666  0.0065
 6318S        S13122   7.715  10.222  21.776 -0.3558 -0.2289  0.2566
 6319S        S13123   1.644   9.890  39.372 -0.1104 -0.1767 -0.1619
 6320S        S13124   2.795   3.094  26.899 -0.2662  0.4437 -0.0876
 6321S        S13125   6.536  11.490  25.113  0.8440  0.2748 -0.1457
 6322S        S13126   9.347   6.898  11.631 -0.1343  0.0740  0.2322
 6323S        S13127   2.377   9.214  12.510  0.0621  0.0112  0.1628
 6324S        S13128   1.486   1.013  12.744  0.2518 -0.4368  0.2661
 6325S        S13129   7.405  12.197  11.752  0.1328  0.2058  0.2531
 6326S        S13130  12.356   9.680  14.324 -0.0555  0.2699 -0.1857
 6327S        S13131  10.405   8.524  17.659 -0.1524 -0.0906 -0.0408
 6328S        S13132   6.850   6.447  19.069  0.0531  0.2564  0.1255
 6329S        S13133   7.013   8.020  21.609  0.3862  0.1472 -0.0329
 6330S        S13134   8.519   2.713  31.810  0.5140 -0.1715  0.0976
 6331S        S13135   5.740   2.216  16.095  0.0706  0.1754  0.1854
 6332S        S13136   3.649   4.214   1.067 -0.5537  0.2072  0.6069
 6333S        S13137   4.586  11.164  30.450 -0.5344  0.4683 -0.0782
 6334S        S13138   6.746   1.018  15.165  0.0499 -0.7784  0.1603
 6335S        S13139   4.781   5.101  17.815 -0.1063  0.2355  0.1634
 6336S        S13140   7.725  10.614  15.261  0.0035 -0.4690  0.1549
 6337S        S13141   8.429  10.522  12.319 -0.8339  0.2584  0.0850
 6338S        S13142   6.251   7.174  16.680  0.0529 -0.2685 -0.2600
 6339S        S13143   4.377   6.145  18.191 -0.0346  0.4287 -0.0260
 6340S        S13144   3.132   5.075  28.011  0.5097 -0.5856  0.0495
 6341S        S13145   9.292  11.968  27.383 -0.5368 -0.0870  0.4667
 6342S        S13146   7.969   4.036  16.961 -0.4477 -0.0163 -0.7445
 6343S        S13147   6.288   7.112  17.716 -0.3527 -0.4068  0.1895
 6344S        S13148  10.538  12.271  12.726 -0.5307 -0.3152  0.0665
 6345S        S13149   6.706   8.387  24.510  0.3131  0.3618 -0.0504
 6346S        S13150   0.438   3.559  31.099  0.7178 -0.0047 -0.0616
 6347S        S13151   3.888   1.427  14.019 -0.1497 -0.1544  0.1388
 6348S        S13152   7.542   9.892  15.398 -0.2955 -0.4772  0.1270
 6349S        S13153   5.211  10.476  17.100 -0.0269  0.5606 -0.0738
 6350S        S13154   8.176  10.313  18.278  0.4576 -0.4808  0.0424
 6351S        S13155   9.846   9.931  15.805  0.0224 -0.1368  0.1021
 6352S        S13156  11.227   3.102  26.886  0.2135 -0.0468 -0.1724
 6353S        S13157   8.475   5.668  18.783  0.3499  0.4067 -0.4467
 6354S        S13158   1.047   1.306  18.900  0.2012 -0.0315  0.3846
 6355S        S13159   6.548   8.747  12.545 -0.1218 -0.0952 -0.3016
 6356S        S13160   0.461   5.494  28.570  0.4936 -0.0265  0.4453
 6357S        S13161   7.970   6.476  13.249  0.0481  0.1404  0.0973
 6358S        S13162   3.060   4.662  12.953  0.1438  0.0806  0.0332
 6359S        S13163   7.966   2.695  22.365  0.0169  0.2426  0.2251
 6360S        S13164  11.900   7.449  23.982  0.0171 -0.2295 -0.3628
 6361S        S13165   8.050   5.722  21.790 -0.5087  0.3186  0.1023
 6362S        S13166  12.063  11.376  26.422  0.2054  0.6050  0.0523
 6363S        S13167   4.979   7.868  17.709  0.1016  0.1378 -0.0357
 6364S        S13168   1.588  11.979  12.805  0.1305 -0.0204  0.3316
 6365S        S13169   7.756   1.634  31.159 -0.1675 -0.0380 -0.5641
 6366S        S13170   5.896   6.906  18.136  0.3349  0.1719  0.2993
 6367S        S13171   1.553   8.907  31.223  0.3138  0.0183  0.2592
 6368S        S13172  12.169   8.381  12.249 -0.1724  0.0547 -0.0479
 6369S        S13173   7.094   8.838  30.997  0.0677 -0.0766 -0.2647
 6370S        S13174   1.051   3.023  13.082 -0.4800 -0.1000 -0.1554
 6371S        S13175   7.346   1.421  16.593  0.1445  0.0147 -0.4260
 6372S        S13176   5.090   7.354  40.045  0.2322  0.1536  0.1357
 6373S        S13177   8.385   4.536  29.240 -0.1383  0.0726 -0.0912
 6374S        S13178   5.629   6.536  11.499 -0.0974  0.2953  0.4223
 6375S        S13179  10.094   0.655  27.828  0.1990  0.0364 -0.4558
 6376S        S13180   9.565   2.688  24.958 -0.0800  0.7363  0.2504
 6377S        S13181   8.216   2.252  25.558 -0.3737 -0.1384  0.3385
 6378S        S13182   0.434   5.728  15.180  0.1003  0.0096 -0.2182
 6379S        S13183   3.792   4.084  25.317 -0.5280 -0.6655 -0.3800
 6380S        S13184  10.404   8.877  16.841  0.0448  0.0608 -0.0470
 6381S        S13185   6.686   2.612  27.139 -0.2894 -0.1696 -0.0739
 6382S        S13186   7.644   5.637  23.696 -0.1262 -0.3759 -0.3355
 6383S        S13187   4.902   4.387  23.519  0.0283 -0.3644  0.4482
 6384S        S13188  12.117   0.583  19.178 -0.3806 -0.5840 -0.1076
 6385S        S13189   9.965   8.363  11.222  0.0783 -0.1687  0.1975
 6386S        S13190   2.622   6.108  18.756  0.5149 -0.2571  0.2631
 6387S        S13191   2.719  10.672  16.053 -0.3800 -0.2852 -0.3794
 6388S        S13192  11.133   2.439  16.527 -0.1745  0.3172 -0.0585
 6389S        S13193   2.639   3.564  13.786 -0.4902  0.3367 -0.1056
 6390S        S13194   5.520   8.984  30.669 -0.4510 -0.6752  0.3154
 6391S        S13195   6.019   6.882  21.784  0.3189 -0.2154  0.1417
 6392S        S13196   0.846   8.102  22.460 -0.1974 -0.5273  0.0769
 6393S        S13197  11.911   9.651  24.651  0.0241 -0.0231  0.5865
 6394S        S13198   0.130   9.177  15.628 -0.2419  0.5019  0.1636
 6395S        S13199   6.854   4.795  24.017 -0.0515 -0.7787  0.2954
 6396S        S13200   1.844   0.908  32.332 -0.4680 -0.3510  0.6050
 6397S        S13201   6.373   7.271  21.539  0.1987  0.0917 -0.5538
 6398S        S13202   0.074   1.071  27.058 -0.1126 -0.2031 -0.2882
 6399S        S13203   5.859   5.864  16.615  0.1355  0.0397  0.0354
 6400S        S13204   6.062   9.337  19.254  0.1964  0.2288 -0.4299
 6401S        S13205   5.666   0.168  22.557  0.6801 -0.0546 -0.4742
 6402S        S13206   4.691  10.268  13.846  0.2138  0.4042  0.1292
 6403S        S13207   8.292   1.137  30.739 -0.1360  0.1006 -0.6360
 6404S        S13208  10.595   4.479  13.867 -0.3906  0.4368  0.1498
 6405S        S13209   6.762   7.709  32.245  0.1386  0.3707  0.0590
 6406S        S13210   2.680   7.010  26.873 -0.1687 -0.2543  0.7979
 6407S        S13211   9.111  11.187  30.203 -0.3671  0.0833 -0.0439
 6408S        S13212  12.246   2.285  28.821 -0.3503  0.3967 -0.2163
 6409S        S13213  11.895   2.432  30.146 -0.1612 -0.0603 -0.2189
 6410S        S13214   4.814   3.177  31.008 -0.1569  0.6946 -0.0971
 6411S        S13215   9.007  10.797  24.050 -0.3193 -0.0329  0.2024
 6412S        S13216   6.947   1.926  16.964 -0.0099 -0.0445 -0.2399
 6413S        S13217   6.417  11.165  22.398 -0.2579 -0.0574  0.0956
 6414S        S13218   6.427   0.255  25.263  0.3470 -0.1713 -0.1610
 6415S        S13219   8.208  10.804  26.648  0.1504 -0.2348  0.0075
 6416S        S13220   3.097   0.082  11.866  0.4927 -0.0778  0.2407
 6417S        S13221   8.577   5.626  13.295 -0.3718 -0.0823 -0.3839
 6418S        S13222   1.559   9.282  29.452 -0.6032 -0.0848 -0.8035
 6419S        S13223   0.320   3.470  30.241  0.5532  0.0839  0.2420
 6420S        S13224   2.739  11.503  29.036  0.0379 -0.0478 -0.5548
 6421S        S13225   2.788   4.984  25.699 -0.3351 -0.3510  0.0749
 6422S        S13226   4.247   9.165  27.816  0.1605 -0.2483 -0.2496
 6423S        S13227   3.216   9.992  28.202 -0.5708 -0.8039  0.3913
 6424S        S13228  10.284  10.425  31.263  0.7446  0.2322  0.2375
 6425S        S13229  10.281   3.533  15.852 -0.3706 -0.1227  0.2747
 6426S        S13230   7.954   8.881  18.817 -0.1706 -0.2725 -0.3424
 6427S        S13231   7.606   4.101  30.850 -0.4291  0.3268 -0.3374
 6428S        S13232   8.969   6.435  27.844 -0.8849  0.2422 -0.2121
 6429S        S13233   6.551   0.258  22.142  0.2045  0.2556 -0.1219
 6430S        S13234   9.712   9.759  22.220 -0.0053  0.4233  0.3773
 6431S        S13235   9.518   7.860  15.448 -0.1845 -0.3153 -0.0022
 6432S        S13236   7.372   4.522  25.977  0.1623 -0.1631  0.2861
 6433S        S13237   9.468   1.375  12.184  0.2770  0.4538  0.2079
 6434S        S13238   7.590   4.485  18.213  0.0401  0.2557 -0.1878
 6435S        S13239   0.356   9.599  26.985 -0.7514 -0.1941 -0.5445
 6436S        S13240  11.671   6.391  15.006 -0.0915 -0.0131 -0.1048
 6437S        S13241   0.264   6.378  26.233  0.3020 -0.4196 -0.4506
 6438S        S13242   2.400   5.446  31.080  0.0414 -0.2821 -0.1629
 6439S        S13243   3.049   8.433  17.405 -0.2211 -0.0251 -0.4839
 6440S        S13244   5.450  10.770  25.255  0.3342  0.3076  0.4360
 6441S        S13245  11.506   0.072  13.916  0.5134  0.1239  0.3006
 6442S        S13246  12.030  11.185  19.551 -0.6455 -0.0261  0.2583
 6443S        S13247   5.212  11.188  31.763 -0.5429  0.2453  0.1415
 6444S        S13248  10.081   7.382  14.836 -0.1165 -0.2728  0.1985
 6445S        S13249   6.380   9.611  13.065 -0.0755  0.2005 -0.2639
 6446S        S13250   4.854  11.417  14.189  0.3475 -0.3021 -0.2065
 6447S        S13251   6.089   4.491  16.198  0.1884  0.2687 -0.0450
 6448S        S13252   2.316   9.954  25.414  0.0383  0.3236 -0.1842
 6449S        S13253   0.747   2.710  32.618 -0.3281 -0.0299 -0.0499
 6450S        S13254   1.310   7.302  11.206  0.0024 -0.3201  0.1653
 6451S        S13255   5.920   5.603  20.631 -0.0093 -0.2416  0.5548
 6452S        S13256  11.356  10.043  19.027 -0.2313 -0.0640 -0.2704
 6453S        S13257   6.753  11.906  25.505 -0.4698 -0.3110 -0.2472
 6454S        S13258   8.257   9.618  13.167 -0.3136 -0.4367 -0.0135
 6455S        S13259  11.550   6.398  13.813  0.2502  0.0951 -0.0929
 6456S        S13260   7.137   0.159  13.528 -0.5144 -0.0297 -0.0093
 6457S        S13261   7.085   9.207  14.983  0.0308 -0.1107 -0.4066
 6458S        S13262   8.601   8.080  15.546  0.1976  0.4340 -0.1557
 6459S        S13263  11.556   5.189  17.856 -0.2338 -0.1175  0.0837
 6460S        S13264   2.574   7.614  12.967  0.1408 -0.2126  0.0216
 6461S        S13265   0.272   8.542  18.965  0.0823 -0.3843 -0.1389
 6462S        S13266  10.248   7.599  20.097 -0.1852 -0.0658  0.4419
 6463S        S13267   8.792  10.278  28.097  0.0088  0.1321  0.2422
 6464S        S13268   5.090   3.427  12.873  0.1945  0.1695 -0.1474
 6465S        S13269   3.355  11.528  23.764 -0.4312  0.0764  0.3681
 6466S        S13270   1.991   6.916  28.042 -0.0080 -0.5729  0.5170
 6467S        S13271   8.562   0.576  24.110 -0.2132  0.1168  0.1000
 6468S        S13272   9.974  10.610  15.127  0.1630  0.2912 -0.5430
 6469S        S13273   5.745   7.748  11.825  0.4083 -0.3082 -0.1750
 6470S        S13274   7.000   6.123  13.373 -0.2956 -0.0104  0.0657
 6471S        S13275  11.260   9.062  18.181 -0.4217  0.0100  0.0582
 6472S        S13276   1.203   1.594  19.899  0.1248  0.1090 -0.0577
 6473S        S13277   6.313  11.688  11.971 -0.5792 -0.2214 -0.1284
 6474S        S13278   8.458   5.966  22.011 -0.3697  0.0411 -0.2434
 6475S        S13279   5.531   7.826  17.962 -0.0667 -0.1420 -0.2978
 6476S        S13280   5.488   9.971  18.752 -0.2677 -0.8659  0.1458
 6477S        S13281   5.696   0.293  29.706 -0.6906 -0.0008 -0.0133
 6478S        S13282   4.953   7.661  14.077 -0.1062 -0.2845  0.0889
 6479S        S13283   7.302   1.324   9.911  0.1057 -0.0318  0.7485
 6480S        S13284  11.697   5.903  23.274  0.1614 -0.1191  0.0544
 6481S        S13285   7.107  11.899  20.979 -0.4618 -0.1717 -0.4196
 6482S        S13286   2.007   6.719  19.324 -0.2993  0.0604  0.1162
 6483S        S13287   7.615   1.777  26.617 -0.6111 -0.5355 -0.5098
 6484S        S13288   6.306   3.543  22.539  0.3775 -0.2354  0.2226
 6485S        S13289  10.580   8.486  20.104  0.4525  0.0615  0.4648
 6486S        S13290   9.082   0.803  15.718  0.1984  0.5537  0.1851
 6487S        S13291   1.148   1.249  29.431 -0.1444  0.2331 -0.4330
 6488S        S13292   3.420   7.079  11.751 -0.0549 -0.2885 -0.3388
 6489S        S13293   9.878   6.151  20.738 -0.1492  0.0083  0.0522
 6490S        S13294   8.333   2.888  23.410  0.2974  0.0839 -0.1515
 6491S        S13295  12.174  11.032  15.080  0.2645  0.3091 -0.1839
 6492S        S13296   8.781   3.195  26.241 -0.7338 -0.0816  0.1201
 6493S        S13297   6.479   6.530  19.560 -0.2810  0.1369 -0.1130
 6494S        S13298   3.096   6.066  15.269 -0.1741  0.0693 -0.3445
 6495S        S13299   0.322   1.754  21.115  0.0343 -0.0650  0.3041
 6496S        S13300  11.090   8.110  17.899 -0.1218 -0.0840 -0.1411
 6497S        S13301   4.207   0.371  21.930 -0.0268 -0.2847 -0.3632
 6498S        S13302  11.091   5.572  26.026 -0.3682 -0.6852  0.0198
 6499S        S13303   9.638   1.573  14.648  0.4653 -0.0789  0.0067
 6500S        S13304   6.386   0.951  23.038  0.2924  0.1073  0.2313
 6501S        S13305   7.115   7.972  23.793  0.1528 -0.2630  0.0086
 6502S        S13306   4.369   5.724  26.790  0.3164  0.1834  0.4981
 6503S        S13307   5.460   8.148  25.112  0.2882 -0.7769  0.4989
 6504S        S13308  11.298   8.299  26.893 -0.2977 -0.0785  0.5933
 6505S        S13309   5.080  12.210  11.564 -0.2461  0.4370 -0.1243
 6506S        S13310  11.110   3.708  21.033 -0.2983  0.3694  0.4969
 6507S        S13311   8.396  11.451  17.426 -0.4189  0.2267 -0.1171
 6508S        S13312   5.974   5.088  27.718 -0.0905  0.8644 -0.0626
 6509S        S13313   0.136   7.979  22.983 -0.1729  0.0191  0.1518
 6510S        S13314   8.116  10.476  29.261  0.4009  0.5241  0.1746
 6511S        S13315  10.334   5.881  32.341 -0.0072  0.1159 -0.3949
 6512S        S13316   9.911   2.889  20.039 -0.0448  0.4888 -0.3775
 6513S        S13317   9.215   3.763  26.386 -0.2199 -0.4060  0.4558
 6514S        S13318   3.580  11.774  12.698 -0.3546 -0.4522  0.3061
 6515S        S13319  10.122   7.066  26.254  0.3989 -0.0242  0.4190
 6516S        S13320   0.694   4.005  27.994 -0.5518 -0.2840  0.0618
 6517S        S13321   8.342   6.525  28.489 -0.2221  0.3717 -0.4969
 6518S        S13322   1.043   6.721  19.140  0.2582 -0.1454  0.0478
 6519S        S13323   2.755   4.459  14.726  0.4534  0.3177  0.0309
 6520S        S13324   3.787   8.272  12.568 -0.4302 -0.1078  0.0792
 6521S        S13325   5.782   3.152  15.956 -0.6193 -0.5254  0.4683
 6522S        S13326   8.107   8.082  14.212  0.2443 -0.2026  0.2827
 6523S        S13327   2.405  11.744  25.559  0.0657 -0.2175 -0.7106
 6524S        S13328   5.757   0.566  14.441  0.1181 -0.0223  0.0096
 6525S        S13329   1.494   1.722  21.388 -0.1815 -0.2835  0.8822
 6526S        S13330  10.121  11.789  14.887  0.2682  0.1509 -0.4750
 6527S        S13331   0.087  11.625  15.072 -0.1208 -0.6806  0.1078
 6528S        S13332  11.445   7.034  20.167  0.2528 -0.0916  0.0445
 6529S        S13333   9.898   6.400  21.828 -0.0536 -0.2089  0.0997
 6530S        S13334   1.955   1.958  20.098  0.5973 -0.1177 -0.0138
 6531S        S13335   9.167   9.221  20.838 -0.3837  0.1047  0.0197
 6532S        S13336   4.253   4.530  17.624 -0.0849  0.0202  0.0945
 6533S        S13337   1.950   3.576  25.124 -0.0496 -0.5957  0.1937
 6534S        S13338   9.658   9.587  29.352  0.5466 -0.3955 -0.1026
 6535S        S13339  12.199  12.063  12.619  0.2635  0.2781  0.0025
 6536S        S13340  12.330  10.653  14.459 -0.5347  0.3515  0.2806
 6537S        S13341   1.525   5.679  20.826  0.1356  0.0334  0.7496
 6538S        S13342   9.399   1.333  13.956  0.0833  0.1730  0.3807
 6539S        S13343   9.983   6.904  25.772  0.3394  0.2270 -0.1247
 6540S        S13344   0.340   8.271  14.314 -0.3167 -0.0498  0.2240
 6541S        S13345  10.143   1.909  25.277  0.2713 -0.2218  0.3489
 6542S        S13346  11.240   3.945  28.195  0.4848  0.4354  0.3157
 6543S        S13347   1.710   1.454  20.221  0.1712  0.2112 -0.0396
 6544S        S13348   4.407   6.150  18.802  0.3497 -0.3719 -0.4565
 6545S        S13349   8.200  10.115  11.951  0.0160 -0.5697  0.2214
 6546S        S13350   7.254   6.680  21.326  0.5559 -0.1544 -0.1071
 6547S        S13351   8.544   4.188  29.610  0.2794  0.1308 -0.0781
 6548S        S13352   2.952   4.912  15.457 -0.2906 -0.4777 -0.4525
 6549S        S13353   8.831  11.297  13.375 -0.1787 -0.0025  0.2682
 6550S        S13354   4.606   2.672  17.452  0.3368 -0.3787 -0.1503
 6551S        S13355  10.836   3.455  32.524  0.2701 -0.1608 -0.3049
 6552S        S13356   8.032  12.074  13.878  0.4965 -0.0717 -0.3116
 6553S        S13357   2.236   0.327  25.446  0.2973 -0.1152  0.2095
 6554S        S13358   7.629   3.106  17.971 -0.5308  0.5808  0.1605
 6555S        S13359   8.854   5.684  29.436 -0.0152 -0.2953 -0.1662
 6556S        S13360   2.002  12.291  27.214 -0.2968 -0.1537  0.1328
 6557S        S13361   6.327   0.140  25.790  0.3652  0.5451 -0.2840
 6558S        S13362   9.326   0.011  44.299 -0.2752 -0.2290  0.5692
 6559S        S13363   3.689  10.060  17.424  0.3445 -0.1420 -0.3185
 6560S        S13364   7.787  11.181  18.994 -0.2593  0.0106 -0.2399
 6561S        S13365   5.921  11.035  18.167 -0.1209 -0.4183 -0.0679
 6562S        S13366  11.415   6.214  24.018 -0.0431  0.0783  0.0421
 6563S        S13367   0.836   7.916  16.869 -0.6213  0.0002 -0.0762
 6564S        S13368  11.831  11.056  18.091 -0.3307 -0.2231 -0.2825
 6565S        S13369   8.331   8.442  24.933 -0.6516 -0.2725  0.4096
 6566S        S13370   8.318  10.822  11.491 -0.1773  0.0107  0.4732
 6567S        S13371   2.154   1.199  20.411 -0.2941 -0.4051 -0.2981
 6568S        S13372  11.421   3.804  30.068  0.7302  0.6559 -0.5734
 6569S        S13373   6.275  11.989  43.919  0.0372 -0.0804  0.4901
 6570S        S13374   0.555  10.378  18.819 -0.0721  0.8789  0.1193
 6571S        S13375   4.082   6.859   9.778  0.2670  0.4975  0.6244
 6572S        S13376   9.432   2.411  23.200  0.4441  0.0581  0.4849
 6573S        S13377   7.279   2.995  10.956  0.0923 -0.1590 -0.1679
 6574S        S13378   7.309   1.677  18.869 -0.0005  0.1837  0.2816
 6575S        S13379  10.323  11.444  15.188  0.3617  0.0785 -0.1090
 6576S        S13380   7.231   8.974  11.246  0.3184 -0.2310  0.1174
 6577S        S13381   3.712   5.475  16.254 -0.2479 -0.0569  0.1101
 6578S        S13382   3.210   7.437  24.018  0.4337  0.3168 -0.3240
 6579S        S13383  11.643   7.561  20.371  0.2038  0.3360  0.2689
 6580S        S13384   2.186  10.524  22.224  0.3448  0.2960  0.4857
 6581S        S13385   2.030  11.458  19.780 -0.1822 -0.4522  0.0600
 6582S        S13386   3.754   1.898  14.278 -0.1533  0.2651  0.3229
 6583S        S13387  10.340   7.029  27.302  0.5051 -0.1424 -0.1757
 6584S        S13388   1.857  10.176  20.000 -0.5991  0.0179  0.5896
 6585S        S13389   9.124  11.774  19.130 -0.3272  0.4293 -0.1320
 6586S        S13390   2.721   0.956  19.040  0.5121  0.1830  0.2036
 6587S        S13391   0.578  12.188  22.134  0.6816 -0.3809 -0.2219
 6588S        S13392  10.371   0.924  18.069  0.3596  0.1424  0.0149
 6589S        S13393   8.087   0.655  24.075 -0.4399  0.1205 -0.4557
 6590S        S13394   2.310   4.384  24.263  0.4297 -0.1286 -0.5765
 6591S        S13395   9.219   6.688  25.938 -0.0838  0.1048  0.3235
 6592S        S13396  12.036  12.163  17.506 -0.1800  0.0716  0.4198
 6593S        S13397   1.344   8.855  46.457 -0.2944 -0.0559  0.2713
 6594S        S13398   6.001   1.857  12.071 -1.0030 -0.1141 -0.1547
 6595S        S13399   3.834   4.669  18.091  0.0047  0.3213  0.0510
 6596S        S13400  10.107  10.766  18.729 -0.0353 -0.4042 -0.1619
 6597S        S13401   1.767   1.076  18.951  0.3332  0.0781 -0.3015
 6598S        S13402   1.414  10.647  26.020  0.8650  0.3404  0.4197
 6599S        S13403   6.277   7.988  29.552 -0.0850  0.2432 -0.3246
 6600S        S13404  11.547   7.677  29.851 -0.2332 -0.0427  0.0954
 6601S        S13405   1.023   0.717  18.973 -0.3162  0.2169 -0.1644
 6602S        S13406   0.247   8.963  19.780 -0.2251  0.1027  0.0448
 6603S        S13407   3.420   5.261  14.627  0.2359 -0.4966 -0.0194
 6604S        S13408   4.462   9.728  20.185  0.3627 -0.1795  0.0749
 6605S        S13409  11.757   6.560  15.628  0.2982  0.4804 -0.1301
 6606S        S13410  12.111   1.370  11.603 -0.1570 -0.3743  0.2126
 6607S        S13411   5.105  11.710  30.773  0.3709 -0.0819  0.2555
 6608S        S13412   5.622   8.825  20.311  0.1379 -0.2379  0.4667
 6609S        S13413   5.384   5.576   6.263  0.1462  0.0866 -0.1409
 6610S        S13414   0.204   0.136   3.723  0.1260  0.0360  0.0171
 6611S        S13415   0.732  10.469  21.285  0.0729 -0.0519  0.2616
 6612S        S13416   6.888   6.975  17.841 -0.2589  0.3594 -0.3124
 6613S        S13417   6.179   5.338  16.907 -0.2014  0.4306  0.2244
 6614S        S13418   4.963   3.787  15.213  0.2581  0.0075 -0.3929
 6615S        S13419   7.990   4.508  27.755  0.1962 -0.1246  0.2488
 6616S        S13420   3.837   2.045  22.597  0.4627  0.2154  0.0981
 6617S        S13421   4.210  10.251  19.349 -0.5797  0.1529 -0.0885
 6618S        S13422   8.995   3.277  31.394 -0.1955  0.2096 -0.7134
 6619S        S13423   4.256   0.890  20.982 -0.1777  0.0816  0.0708
 6620S        S13424  10.882  11.736  22.621  0.4893  0.2363 -0.2519
 6621S        S13425  10.267   0.516  25.750 -0.5911  0.3088 -0.4430
 6622S        S13426   3.060   0.889  12.869  0.0391  0.1920 -0.5793
 6623S        S13427  11.628   1.649  31.879 -0.0681 -0.3433  0.4823
 6624S        S13428   7.731   9.829  14.390 -0.1775 -0.1040 -0.2787
 6625S        S13429   3.493   7.942  24.483 -0.5490  0.4076  0.2897
 6626S        S13430   3.726  11.838  19.252 -0.2200 -0.0320 -0.3505
 6627S        S13431  10.906   2.616  25.394  0.0799  0.1808 -0.4832
 6628S        S13432   2.661   6.476  11.927 -0.2778 -0.1557 -0.4748
 6629S        S13433   2.284  10.030  22.193  0.4895 -0.3754  0.2074
 6630S        S13434   4.997   9.920  20.827 -0.2575  0.3063 -0.2468
 6631S        S13435   1.969  11.041  23.091 -0.2116  0.4275  0.0826
 6632S        S13436   1.984   5.835  34.274  0.9398  0.4751  0.3651
 6633S        S13437   9.896   0.676  30.558  1.0775 -0.0271 -0.4791
 6634S        S13438   0.261   3.257  28.918 -0.3149 -0.1880 -0.0677
 6635S        S13439   6.207   5.388  28.047  0.3030  0.0985 -0.1121
 6636S        S13440   8.316   2.394  23.705 -0.1170  0.5893  0.3428
 6637S        S13441   3.516   5.046  23.273 -0.0520  0.1855 -0.5111
 6638S        S13442   3.784   0.930  14.157 -0.1696  0.1087  0.1012
 6639S        S13443   1.756   0.261  16.498 -0.3538 -0.4227  0.1064
 6640S        S13444   3.868   2.049  12.280 -0.2907  0.1358  0.2514
 6641S        S13445   5.547   2.075  22.325 -0.1380 -0.3346  0.5581
 6642S        S13446  10.606  10.657  25.042  0.2188 -0.2384 -0.0646
 6643S        S13447   7.256   8.712  12.218 -0.0876 -0.2152  0.1363
 6644S        S13448   4.160   8.485  25.709  0.0176  0.0886  0.8118
 6645S        S13449   7.929   1.426  13.784  0.1376 -0.2089  0.2959
 6646S        S13450   3.559   7.783   9.129  0.2596 -0.3900 -0.3621
 6647S        S13451   0.559   3.480  12.374 -0.2130  0.0616 -0.0399
 6648S        S13452   8.938   6.591  19.249 -0.2793  0.0196  0.0150
 6649S        S13453   3.200   5.186  11.804  0.3864 -0.5082 -0.0612
 6650S        S13454   6.623  10.860  27.568 -0.2030  0.0675 -0.3051
 6651S        S13455   1.332   5.658  15.116  0.0466 -0.1690  0.5506
 6652S        S13456   4.012   4.448  29.535 -0.5603  0.0893 -0.2507
 6653S        S13457  11.317   6.760  23.399 -0.5548  0.4290  0.7752
 6654S        S13458  10.686   3.799  14.892  0.1518 -0.0363 -0.7605
 6655S        S13459   6.080   7.780  17.921  0.0495 -0.2779  0.4366
 6656S        S13460   0.103   2.822  12.871 -0.0092 -0.0357 -0.2245
 6657S        S13461   7.850   7.440  32.612  0.1571  0.4882 -0.9101
 6658S        S13462  10.112   5.479  28.981  0.2049  0.0764  0.3292
 6659S        S13463   6.205   3.539  24.779  0.0917 -0.5923 -0.2393
 6660S        S13464  10.452   8.119  29.626  0.0872  0.5186 -0.1594
 6661S        S13465   1.973  10.813  26.859  0.1537 -0.0637  0.2736
 6662S        S13466   9.840   9.603  15.406  0.2465  0.5560 -0.1391
 6663S        S13467  11.949   3.645  24.190  0.0145 -0.4213  0.1013
 6664S        S13468   8.998   1.686  15.388  0.0449 -0.2225  0.0305
 6665S        S13469   6.610   1.074  16.750 -0.1911  0.3730  0.1554
 6666S        S13470   9.018   7.243  21.180 -0.2838  0.2398  0.3082
 6667S        S13471   2.315   6.665  26.739  0.1036 -0.3973  0.3679
 6668S        S13472   9.355  10.800  41.587 -0.1078 -0.3200  0.3293
 6669S        S13473   9.930   6.105  24.371 -0.3391 -0.3492  0.4542
 6670S        S13474   5.948  10.082  12.298  0.3681 -0.5399  0.0991
 6671S        S13475   7.119  11.347  12.098 -0.4018 -0.2008  0.0403
 6672S        S13476   9.249   5.453  30.742 -0.2958 -0.0546 -0.3397
 6673S        S13477   0.319   8.895  15.256 -0.4589  0.6621 -0.2352
 6674S        S13478   6.516   8.227  22.040 -0.4860 -0.3454  0.0513
 6675S        S13479   3.968  10.287  29.618  0.1940  0.4816  0.5949
 6676S        S13480   2.201   0.945   8.651  0.0181  0.1826  0.3445
 6677S        S13481  10.732   1.656  23.490  0.1896  0.3654  0.0097
 6678S        S13482   0.846   5.405  15.283 -0.0040 -0.2604  0.0118
 6679S        S13483   7.876   2.677  30.521  0.2460 -0.1364  0.4847
 6680S        S13484  10.949  10.948  14.935 -0.1907 -0.3546  0.0358
 6681S        S13485   1.714   9.943  17.481  0.0343 -0.0106 -0.1223
 6682S        S13486   0.347   6.648  12.735 -0.4274 -0.2676  0.0497
 6683S        S13487   1.262   1.719  20.531  0.0205  0.1701 -0.3498
 6684S        S13488   5.576   7.866  12.608  0.1751 -0.6747 -0.3480
 6685S        S13489   3.780   6.269  27.942 -0.0986  0.5824  0.3142
 6686S        S13490   8.469  10.790  28.890 -0.0755  0.3097  0.4967
 6687S        S13491  12.174   8.102  20.952 -0.0592 -0.1298 -0.0843
 6688S        S13492   1.034   8.784  13.748 -0.1489  0.1924  0.0188
 6689S        S13493   0.556   0.876  20.220 -0.4553  0.4991 -0.3868
 6690S        S13494  11.805   5.009  15.870 -0.1261  0.9579 -0.4165
 6691S        S13495   6.291   1.650  25.517  0.4200 -0.0212 -0.1966
 6692S        S13496   3.318  12.238  27.721 -0.0145  0.1270 -0.0943
 6693S        S13497   3.109  12.246  28.170 -0.0133  0.1049 -0.0615
 6694S        S13498   0.574  11.756  15.028 -0.3373 -0.0675  0.1449
 6695S        S13499   3.782   7.132  24.183 -0.6456 -0.7178 -0.0955
 6696S        S13500   4.910   3.440  14.363 -0.5334  0.2567 -0.0313
 6697S        S13501  10.849   8.284  20.532 -0.3176 -0.3140 -0.1931
 6698S        S13502  10.390   8.053  15.953 -0.0089  0.1008 -0.0217
 6699S        S13503   0.636   0.882  20.862  0.0097 -0.0582  0.2099
 6700S        S13504  11.254   4.039  17.602  0.4212 -0.1831  0.3828
 6701S        S13505  11.441   3.288  13.561  0.0983 -0.0972  0.3684
 6702S        S13506   5.134  11.499  19.233  0.0109 -0.2987  0.2185
 6703S        S13507   9.866   5.268  26.355 -0.0232  0.1723 -0.6780
 6704S        S13508  12.255   8.370  15.554  0.2589 -0.1830  0.1664
 6705S        S13509   0.685   5.120  23.632 -0.1749  0.2083 -0.2708
 6706S        S13510  11.262   3.088  24.015  0.1273  0.1116 -0.2640
 6707S        S13511  10.155   9.308  15.840 -0.0486  0.0756 -0.0973
 6708S        S13512   3.781   8.637  15.614 -0.0409 -0.1264  0.1338
 6709S        S13513  10.433   3.940  23.952 -0.0274 -0.4723 -0.4584
 6710S        S13514   9.658   5.437  23.939 -0.3831  0.2196  0.6939
 6711S        S13515   2.973   8.575  19.188 -0.0180 -0.2075  0.1129
 6712S        S13516   9.471   4.609  17.331  0.3978  0.2756 -0.1860
 6713S        S13517   9.894   1.331  16.461  0.7895  0.5921 -0.5543
 6714S        S13518  11.355   6.547  10.392  0.0836  0.5244  0.4674
 6715S        S13519   7.197   4.585  13.818 -0.2542  0.2678 -0.2200
 6716S        S13520   5.403   8.230  19.572 -0.2746 -0.1666 -0.6103
 6717S        S13521   0.523   6.968  27.420 -0.5480  0.3919  0.2828
 6718S        S13522  12.000   0.798  24.384  0.1505 -0.1085 -0.8242
 6719S        S13523   4.691   3.496  18.153  0.2338 -0.3206 -0.2164
 6720S        S13524   4.313   4.979  17.879  0.5403  0.3636  0.2525
 6721S        S13525   2.734   6.836  18.855 -0.0181  0.1661  0.1712
 6722S        S13526   2.029   9.234  22.620  0.1695 -0.0111 -0.4503
 6723S        S13527   6.789   9.411   1.766 -0.0667 -0.1733 -0.0403
 6724S        S13528   7.349   9.886  17.521  0.1270  0.4465  0.2438
 6725S        S13529   3.770   3.807  18.084 -0.2815 -0.2720  0.1718
 6726S        S13530  10.633   3.004  19.770  0.1744  0.1048  0.0403
 6727S        S13531   8.899   1.794  28.731 -0.5476 -0.2698 -0.1282
 6728S        S13532   1.154   4.597  25.877  0.4753 -0.2718 -0.1958
 6729S        S13533  10.690  10.017  12.732 -0.3977  0.4318  0.5280
 6730S        S13534   7.373   5.527  15.475 -0.4037 -0.0361 -0.2924
 6731S        S13535  11.726  10.010  47.265 -0.2120  0.1224  0.3719
 6732S        S13536   2.624   3.072  22.003  0.0747  0.0640 -0.1652
 6733S        S13537   2.130   3.309  14.115 -0.3122  0.3472  0.2660
 6734S        S13538   2.528   0.917  17.139  0.0245 -0.0405  0.3558
 6735S        S13539   9.396  10.358  26.574  0.0776 -0.2460  0.2148
 6736S        S13540   3.479   6.198  22.747  0.2795  0.1657  0.4244
 6737S        S13541  11.471  11.926  14.029 -0.2640 -0.3258  0.0256
 6738S        S13542  10.736   6.100  13.292  0.2100 -0.0328 -0.3024
 6739S        S13543   7.971   0.850  12.689 -0.3348  0.2257  0.1770
 6740S        S13544   5.996   0.507  17.492 -0.6817  0.1368 -0.5536
 6741S        S13545   4.082   4.771  27.885  0.7459 -0.4566 -0.1217
 6742S        S13546   9.259   1.011  13.066 -0.0199  0.2255  0.3300
 6743S        S13547  10.988   1.159  27.508 -0.4722  0.2541 -0.1082
 6744S        S13548   9.562   9.792  14.488  0.0800  0.3256 -0.0174
 6745S        S13549   1.167   1.852  24.837 -0.4271  0.0275 -0.2545
 6746S        S13550   5.175  11.358  27.580 -0.8283  0.1828 -0.6020
 6747S        S13551   7.850  10.930  25.576 -0.4018 -0.4563  0.4118
 6748S        S13552   1.308  11.870  15.547 -0.0848 -0.2559 -0.1502
 6749S        S13553   7.138  10.843  30.681  0.1842  0.2650  0.6197
 6750S        S13554   8.887   0.104  12.059  0.4435 -0.3383 -0.1098
 6751S        S13555   2.425   3.548  19.731 -0.1572  0.1825 -0.4430
 6752S        S13556   9.523   3.363   5.108  0.3426  0.1124  0.6813
 6753S        S13557   9.589   1.445  12.919 -0.1756 -0.2992  0.3631
 6754S        S13558   7.848   6.530  20.431  0.2018  0.2043  0.3033
 6755S        S13559   3.365   6.515  21.400  0.3646  0.6551  0.4721
 6756S        S13560   6.851   8.405  25.525  0.0142  0.4090  0.0484
 6757S        S13561  11.836   8.387  18.577 -0.4185 -0.5182  0.1918
 6758S        S13562   7.676  10.635  22.119  0.3557 -0.5933  0.4946
 6759S        S13563   8.778   8.757  27.294  0.2006 -0.1297  0.0830
 6760S        S13564   9.469   2.087  33.666 -0.7805 -0.1906  0.2838
 6761S        S13565   4.163   7.493   9.814 -0.0003  0.2631  0.1347
 6762S        S13566   8.031   0.838  18.712  0.0365 -0.1937 -0.2902
 6763S        S13567   9.210  11.212  11.253 -0.0867 -0.5644 -0.1945
 6764S        S13568  12.337   9.575  12.393  0.1848  0.3683 -0.5576
 6765S        S13569   9.662  10.675  31.543 -0.0499 -0.3190  0.0409
 6766S        S13570  10.837  10.217  18.787  0.1246  0.3094  0.2527
 6767S        S13571   5.517  12.230  10.923 -0.0820 -0.3774  0.0493
 6768S        S13572   6.509   6.971  21.949 -0.3457 -0.1796  0.5055
 6769S        S13573   8.479   2.734  15.355  0.2540  0.4506  0.0341
 6770S        S13574   3.486   4.759  23.838  0.0763 -0.1874 -0.4862
 6771S        S13575  12.036   0.410  29.918  0.6019  0.3796  0.1087
 6772S        S13576   2.231   7.763  14.935  0.0221  0.2329 -0.3948
 6773S        S13577  11.328   3.976  14.864 -0.1748 -0.4128  0.3221
 6774S        S13578   5.790  12.129  30.639 -0.3135  0.3621  0.3630
 6775S        S13579   7.548   5.615  28.417  0.0053 -0.0328 -0.4039
 6776S        S13580   0.705   5.184  28.186 -0.0140  0.5273 -0.3936
 6777S        S13581   1.522  11.552  14.323 -0.0523  0.6825 -0.5566
 6778S        S13582   6.714  11.684  30.295  0.1861  0.4098  0.0390
 6779S        S13583   8.001   9.079  26.238  0.8593 -0.3430 -0.2605
 6780S        S13584   5.369   8.127  11.881  0.0934  0.4522  0.7032
 6781S        S13585   6.006  11.068  14.535 -0.0839 -0.2615 -0.2676
 6782S        S13586  12.290   2.754  14.189  0.1664  0.1788 -0.2338
 6783S        S13587  10.264   1.086  17.597  0.0319  0.0605  0.2213
 6784S        S13588  12.285   9.632  23.796  0.0489 -0.5110 -0.5128
 6785S        S13589   8.234   9.265  15.037  0.0247  0.0717  0.0093
 6786S        S13590   3.458  10.284  16.096  0.4966 -0.1618  0.1646
 6787S        S13591   8.225  10.915  26.016 -0.0407  0.3906  0.0042
 6788S        S13592   5.447  10.446  10.248 -0.1259 -0.4534 -0.3214
 6789S        S13593   4.276   1.053  14.851 -0.0335 -0.2855 -0.0813
 6790S        S13594   9.074  10.005  19.888 -0.1141 -0.0555 -0.1640
 6791S        S13595   8.900  10.844  22.138 -0.4481 -0.4915 -0.0525
 6792S        S13596   3.890   5.557  28.034 -0.1572  1.1483 -0.7134
 6793S        S13597   1.937   8.372  24.180 -0.1901 -0.0369 -0.0308
 6794S        S13598   5.062  10.362  16.599 -0.0841 -0.0859 -0.2578
 6795S        S13599   5.379  10.037  11.085  0.3679 -0.1316 -0.3681
 6796S        S13600   7.557   4.696  28.877 -0.2609  0.2306 -0.3862
 6797S        S13601   1.145  10.122  21.209 -0.4746 -0.3236 -0.0655
 6798S        S13602   0.731   9.860  13.310 -0.3935  0.1438  0.5894
 6799S        S13603   0.818   2.227  22.680  0.6332 -0.5101  0.4062
 6800S        S13604   7.932   9.619  26.287 -0.0261 -0.0426  0.5257
 6801S        S13605   7.975   9.428  31.235  0.5003 -0.2044 -0.1505
 6802S        S13606   9.248   2.944  18.166  0.3612  0.4600 -0.0764
 6803S        S13607   1.825   0.156  14.741  0.8472  0.0100 -0.1381
 6804S        S13608   1.126   2.441  13.174 -0.4471 -0.1162 -0.4299
 6805S        S13609   1.712  11.668  13.291 -0.2353  0.1333 -0.0810
 6806S        S13610   4.726  11.968  32.993 -0.6185 -0.0402 -0.7416
 6807S        S13611   7.846   4.403  19.750 -0.1623  0.4952 -0.4296
 6808S        S13612   1.406   2.749  16.066  0.2630  0.3469 -0.0104
 6809S        S13613   0.062   0.533   4.151  0.0836  0.0914  0.6756
 6810S        S13614   5.894   9.776  17.246  0.1729 -0.4749  0.0262
 6811S        S13615   0.214   4.246  19.095  0.2923  0.2742 -0.4426
 6812S        S13616   2.382   2.619  14.894 -0.4658 -0.2594 -0.1981
 6813S        S13617  10.103   3.514  29.336  0.3293 -0.1474 -0.4781
 6814S        S13618   4.055   1.232  16.739 -0.1581  0.2247 -0.0824
 6815S        S13619   6.274   8.035  27.921 -0.3899 -0.0261 -0.5529
 6816S        S13620  10.113   5.236  30.997  0.7575  0.1735  0.1216
 6817S        S13621   6.636  10.874  15.412 -0.6081  0.0689 -0.0675
 6818S        S13622   1.066   7.945  15.681 -0.7135 -0.1691  0.2551
 6819S        S13623   5.594   3.610  12.906  0.0212  0.2793 -0.0496
 6820S        S13624   8.762   5.433  26.803  0.1138 -0.3850 -0.3132
 6821S        S13625   8.705   7.573  15.563  0.4264 -0.9781 -0.3815
 6822S        S13626   1.457   9.715  26.520 -0.0267  0.2265  0.2410
 6823S        S13627   1.278   5.445  22.437  0.1032 -0.0510  0.0832
 6824S        S13628   2.899  10.516  12.427  0.1905 -0.1724  0.0159
 6825S        S13629   4.965   1.103  21.515 -0.2426 -0.4022 -0.1112
 6826S        S13630  11.326  11.024  19.449 -1.0534 -0.3426 -0.3509
 6827S        S13631   8.301   2.267  24.739 -0.4345  0.2469  0.0462
 6828S        S13632  10.335   6.821  11.340 -0.0982 -0.0945 -0.2197
 6829S        S13633   7.351   1.466  14.798 -0.1284 -0.2378  0.2220
 6830S        S13634  11.480   9.705  22.248  0.2352 -0.0616  0.1035
 6831S        S13635   4.985   6.083  18.932 -0.0571  0.0720  0.0030
 6832S        S13636   9.068   1.352  32.175  0.1226  0.1547  0.0201
 6833S        S13637  11.469  12.362  44.379  0.1015  0.1168  0.4646
 6834S        S13638   2.681   5.977  33.861 -0.0875  0.0087 -0.2310
 6835S        S13639  10.485   6.914  18.133 -0.2784  0.6809 -0.1283
 6836S        S13640   5.725   7.436  30.680  0.0049 -0.2859 -0.5430
 6837S        S13641   5.557   1.564  30.355 -0.2602  0.0417 -0.1435
 6838S        S13642   7.336   6.557  16.672 -0.0219 -0.6129 -0.1349
 6839S        S13643   8.024  10.518  32.156 -0.3873 -0.4843 -0.0288
 6840S        S13644   5.234   6.686  12.453  0.5385  0.0631  0.1890
 6841S        S13645   4.672  11.581  20.709 -0.0813 -0.0583  0.2336
 6842S        S13646   2.983  10.587  16.531 -0.5175  0.1399 -0.0233
 6843S        S13647   6.347  12.181  22.342 -0.1850  0.1210  0.5488
 6844S        S13648   3.216   4.680  23.416  0.7290  0.0760 -0.0350
 6845S        S13649   8.796  10.217  46.408 -0.5247 -0.2778  0.6227
 6846S        S13650   6.076   5.559  15.940 -0.2386 -0.3467  0.2764
 6847S        S13651  10.426   8.582  12.411 -0.5890 -0.2268 -0.2134
 6848S        S13652   4.147   7.680  27.839 -0.2466 -0.0945  0.0418
 6849S        S13653   4.989   9.286  11.943 -0.2245 -0.0082  0.0683
 6850S        S13654   9.071  10.629  26.839  0.0913 -0.1348 -0.0236
 6851S        S13655   9.671  10.766  24.905  0.2739 -0.2502  0.4978
 6852S        S13656   9.201   4.154  17.446  0.5095  0.1314 -0.2816
 6853S        S13657   8.905   2.275  20.844 -0.0188 -0.1800 -0.1615
 6854S        S13658   2.060   8.835  12.523  0.2268  0.3986 -0.0551
 6855S        S13659   3.727   7.255  20.143 -0.0348  0.3968 -0.3614
 6856S        S13660   0.976   9.176  29.534  0.0860 -0.4656 -0.0900
 6857S        S13661   2.359   3.495  15.867 -0.2520  0.2547 -0.4485
 6858S        S13662  10.667   4.955  11.657  0.1542  0.4775  0.1738
 6859S        S13663  11.734  12.285  12.492 -0.2290 -0.3136  0.0670
 6860S        S13664   2.664   5.232  15.174 -0.2006 -0.0625 -0.1425
 6861S        S13665  11.665  11.333  18.530  0.1779 -0.3618 -0.3312
 6862S        S13666   0.740   7.217  21.771  0.1055  0.0224 -0.6730
 6863S        S13667   4.495   6.337  15.509  0.1058  0.2196 -0.2417
 6864S        S13668   5.599   2.634  11.826 -0.4107  0.4014  0.2141
 6865S        S13669   2.681   9.064  29.794 -0.3698 -0.1750  0.0055
 6866S        S13670   1.843   2.148  25.794 -0.3968 -0.2670  0.9101
 6867S        S13671  10.367   9.569  17.237  0.3580 -0.2997  0.0848
 6868S        S13672   4.145   7.991  28.623  0.1629  0.2527  0.5123
 6869S        S13673   1.793  11.167  12.332 -0.1212  0.1313  0.0257
 6870S        S13674  10.964  12.113  20.122 -0.2537 -0.2230  0.0984
 6871S        S13675  10.871   3.713  16.634 -0.3640 -0.2590  0.1468
 6872S        S13676   6.727   4.299  14.880  0.2294 -0.4526  0.3034
 6873S        S13677   7.870   3.106  12.529 -0.3831 -0.1552  0.0390
 6874S        S13678   1.991   6.869  19.940 -0.8116  0.5661 -0.3121
 6875S        S13679   2.424   5.274  14.289  0.0727  0.1136  0.1100
 6876S        S13680   2.920   8.101  26.915  0.2088 -0.0001  0.1483
 6877S        S13681   1.667   0.411  20.166 -0.1194 -0.0107 -0.0092
 6878S        S13682   7.231   2.843  26.009 -0.7956  0.2299  0.4097
 6879S        S13683   3.728   2.854  17.497 -0.0736  0.2497  0.1515
 6880S        S13684   0.944   5.218  12.255  0.0478  0.2306 -0.1512
 6881S        S13685   4.742   5.544  26.405 -0.2539  0.4630 -0.1552
 6882S        S13686   7.242   6.746  11.023 -0.2424  0.2307  0.5316
 6883S        S13687   5.034  11.152  30.019 -0.0664 -0.0889 -0.2758
 6884S        S13688   6.837  11.308  12.679 -0.5303  0.0897 -0.1656
 6885S        S13689   0.684   3.440  24.353 -0.1882  0.1233  0.2159
 6886S        S13690   9.895   7.065  24.824  0.0117 -0.1930  0.3718
 6887S        S13691   9.662   1.009  22.313  0.1912  0.2187 -0.0198
 6888S        S13692   5.108  11.816  23.415 -0.2000 -0.3210 -0.3039
 6889S        S13693   7.488   7.368  20.152 -0.0758  0.3591 -0.2378
 6890S        S13694  10.799   2.672  21.515 -0.0175 -0.1875 -0.0251
 6891S        S13695   9.109   4.525  16.073  0.2063 -0.6306 -0.2511
 6892S        S13696   9.281   3.100  17.638  0.0294 -0.1349  0.2009
 6893S        S13697   9.826  11.340  14.964  0.0931 -0.1632 -0.1713
 6894S        S13698   7.434   8.125  11.554 -0.4207 -0.2699 -0.0258
 6895S        S13699   3.758  10.835  12.852 -0.4195 -0.5419  0.1273
 6896S        S13700   1.522   2.478  11.719  0.2199 -0.7896 -0.1777
 6897S        S13701   7.564  10.414  25.744  0.0859  0.3928 -0.3601
 6898S        S13702   7.414   3.859  21.957  0.1781 -0.0835 -0.5629
 6899S        S13703   5.985   7.741  31.966 -0.0385 -0.4641  0.1697
 6900S        S13704   2.914   5.413  19.550 -0.2602  0.1006 -0.6811
 6901S        S13705   8.206   3.417  19.060 -0.5456 -0.0429 -0.4338
 6902S        S13706  10.600   5.453  11.762  0.2203  0.1770  0.1670
 6903S        S13707   1.418   7.186  15.147  0.0336  0.4591 -0.3401
 6904S        S13708   4.022   6.298  16.707  0.1659  0.2708 -0.2149
 6905S        S13709   7.255   8.923  17.082  0.0871  0.1739  0.5170
 6906S        S13710  10.454  11.500  21.095 -0.2260  0.1805  0.2018
 6907S        S13711   3.312   5.720  16.500  0.2063 -0.2007 -0.1135
 6908S        S13712  11.097   5.854  21.208 -0.2044 -0.6127  0.8853
 6909S        S13713  11.463   3.845  32.477 -0.1150 -0.2024 -0.0194
 6910S        S13714   5.025   1.345  25.721  0.1514  0.0824  0.3680
 6911S        S13715   9.763   4.011  17.488  0.1910 -0.2356 -0.1317
 6912S        S13716   3.906   3.765  28.100 -0.2362 -0.2470 -0.5464
 6913S        S13717   6.670   0.699  28.124 -0.1224 -0.0052  0.2523
 6914S        S13718   6.077  11.073  15.304 -0.1703 -0.2241  0.1702
 6915S        S13719   7.289   4.393  21.834 -0.0308  0.4139 -0.0172
 6916S        S13720   1.682  12.329  22.839  0.0360 -0.0163 -0.1130
 6917S        S13721  11.884  12.180  28.740  0.3458  0.1103  0.0563
 6918S        S13722   2.493   0.089  19.124  0.1043 -0.1070 -0.4832
 6919S        S13723  11.852   4.396  12.249 -0.1412 -0.3529 -0.0062
 6920S        S13724   2.022   3.542  12.770  0.2709 -0.1118 -0.0652
 6921S        S13725   3.064  10.877  12.141 -0.4623  0.3137  0.3526
 6922S        S13726   2.519  10.827  20.991  0.1670  0.6159  0.1862
 6923S        S13727  11.429   1.232  21.205 -0.4480  0.0234  0.2649
 6924S        S13728   6.305   3.909  11.615  0.5760 -0.1666 -0.1183
 6925S        S13729   0.485   7.721  23.709  0.2987  0.6914 -0.0716
 6926S        S13730   6.526   3.034  24.685  0.1462  0.0432 -0.2140
 6927S        S13731  11.766   2.767  29.597  0.1201  0.1435 -0.6708
 6928S        S13732   7.704   3.591  21.252  0.2017 -0.1531 -0.0325
 6929S        S13733   8.648   4.901  16.032 -0.1542  0.1545 -0.1805
 6930S        S13734  10.709   4.810  31.450  0.3323  0.3349  0.4085
 6931S        S13735  12.263   3.769  19.075  0.1706 -0.1163  0.2395
 6932S        S13736   1.032   3.116  24.133 -0.0600 -0.2119  0.2708
 6933S        S13737   7.487  11.682  16.185 -0.2711  0.4433 -0.5579
 6934S        S13738   4.093   4.753  22.798 -0.6432 -0.0098  1.0174
 6935S        S13739   5.740   5.837  23.021  0.4378  0.1175  0.2692
 6936S        S13740   0.146   4.119  25.240 -0.1521  0.2908 -0.4802
 6937S        S13741  11.676   2.131  14.964 -0.1213 -0.3321  0.1532
 6938S        S13742   5.897   9.945  19.255  0.0429 -0.6840  0.1610
 6939S        S13743  10.302   7.564  20.578  0.3589 -0.0600 -0.2614
 6940S        S13744   7.437   8.204  27.910  0.1566  0.0605 -0.3606
 6941S        S13745  11.938   0.824  18.212  0.1888  0.1406 -0.1890
 6942S        S13746   8.267   2.323  30.356 -0.1283  0.0421 -0.7161
 6943S        S13747  12.255   2.742  23.794 -0.0375 -0.4144 -0.1710
 6944S        S13748   9.520   0.256  28.753 -0.1577 -0.1376  0.6591
 6945S        S13749   2.823   4.872  19.532 -0.7208  0.2148 -0.1596
 6946S        S13750   5.892   9.369  17.584  0.1040 -0.3915 -0.6680
 6947S        S13751   9.811   2.116  19.589 -0.0186  0.1554  0.6738
 6948S        S13752  11.245   2.569  32.244 -0.2968  0.0808 -0.1745
 6949S        S13753   4.226   0.147  24.943  0.4493  0.0910  0.0132
 6950S        S13754   2.249   5.817  22.152 -0.3724  0.3221  0.3420
 6951S        S13755   9.786  10.317  12.422 -0.2777 -0.0767 -0.0315
 6952S        S13756   1.250   8.883  22.019  0.0387 -0.3807 -0.2477
 6953S        S13757   7.279   7.842  23.166  0.5464  0.6642  0.1600
 6954S        S13758   2.612   7.752  30.304  0.1314 -0.2361 -0.4194
 6955S        S13759   0.513   8.015  12.814 -0.3202  0.0229  0.3716
 6956S        S13760  10.946   3.582  22.573 -0.1493 -0.4211 -0.1890
 6957S        S13761   9.102   7.334  15.945 -0.0247 -0.3204 -0.0122
 6958S        S13762   8.507   3.156  16.393 -0.2068  0.0493  0.1042
 6959S        S13763   7.353   0.899  20.151  0.1882 -0.4073 -0.0179
 6960S        S13764  12.081   9.121  19.270 -0.2956 -0.3099  0.0328
 6961S        S13765   5.940   2.004  24.553 -0.0738  0.4056  0.1109
 6962S        S13766   1.068   2.693  12.692 -0.1237  0.1728 -0.2768
 6963S        S13767   4.653   6.634  20.042  0.0513  0.0659 -0.5634
 6964S        S13768  11.818   9.200  24.997  0.0595  0.5120  0.0401
 6965S        S13769   5.945   5.398  16.420 -0.0130  0.1003 -0.6364
 6966S        S13770   8.860  11.530  14.743  0.2627  0.1755  0.4071
 6967S        S13771   7.226  11.892  18.838 -0.3578  0.0639 -0.4476
 6968S        S13772   2.711   3.243  20.076 -0.3448  0.3704  0.1007
 6969S        S13773   2.012   3.714  28.524  0.4120  1.0159  0.0864
 6970S        S13774  11.294   7.988  14.592 -0.4059  0.0282  0.1595
 6971S        S13775   2.575   4.482  12.824  0.1290 -0.1573  0.1131
 6972S        S13776   6.078  11.271  28.755 -0.1795  0.3360 -0.1719
 6973S        S13777   1.060   9.465  12.989 -0.1139 -0.1881 -0.1317
 6974S        S13778   9.031   5.016  18.218 -0.3890 -0.2758 -0.3268
 6975S        S13779  10.414  11.849  26.500 -0.2906 -0.0347  0.4693
 6976S        S13780  11.046   3.455  18.625 -0.7135 -0.4991  0.1423
 6977S        S13781   1.823   5.658  14.957 -0.5543 -0.3596  0.2333
 6978S        S13782   6.780   7.922  28.347 -0.3055  0.2527  0.0801
 6979S        S13783   6.752   7.388  17.500 -0.0594 -0.1534  0.2504
 6980S        S13784   8.535   4.765  17.708 -0.0525  0.2696 -0.2350
 6981S        S13785   9.479   7.536  17.752  0.3176 -0.4786 -0.7999
 6982S        S13786   9.712   3.820  16.533  0.3464  0.1818  0.7420
 6983S        S13787   8.715  11.939  12.084  0.0893 -0.1010 -0.2888
 6984S        S13788  10.761  10.876  23.159 -1.0810  0.7301  0.9156
 6985S        S13789   0.541   4.523  23.579  0.1944 -0.4902  0.2120
 6986S        S13790  11.225   0.685  23.190 -0.3633  0.0589  0.0112
 6987S        S13791   9.288  10.144  26.128 -0.0349  0.2745 -0.0804
 6988S        S13792   3.563  11.520  20.344 -0.2123  0.4826  0.6471
 6989S        S13793   3.323   1.728  29.636  0.2168  0.3299 -0.7971
 6990S        S13794   4.043  10.588  18.142 -0.1169  0.4460 -0.1417
 6991S        S13795   5.512   5.518  14.987  0.1060 -0.2931 -0.0483
 6992S        S13796   3.313   5.575  19.346 -0.4106 -0.1129 -0.0830
 6993S        S13797   1.317   8.405  22.697  0.3922 -0.4531 -0.1387
 6994S        S13798   0.461   6.093  21.877  0.5840 -0.1656 -0.3611
 6995S        S13799  10.977   7.787  11.449  0.0623  0.5740  0.0742
 6996S        S13800   5.735   6.230  29.371  0.3778 -0.0878 -0.2799
 6997S        S13801   7.388  11.035  24.675 -0.8638 -0.0892 -0.4885
 6998S        S13802   3.474   1.777  13.808  0.0269  0.0302  0.3587
 6999S        S13803   7.669   7.898  14.425 -0.2095  0.2007 -0.2327
 7000S        S13804   9.972   4.389  27.838 -0.0920 -0.0159  0.2070
 7001S        S13805   1.061   7.414  21.411  0.5564  0.1071 -0.4698
 7002S        S13806   5.976   0.006  15.134 -0.2222 -0.0604  0.3568
 7003S        S13807   2.634   1.919  20.838 -0.1564 -0.1570  0.0778
 7004S        S13808   2.179  11.504  27.851  0.3666 -0.6176 -0.1721
 7005S        S13809   7.504  11.594  26.112  0.2411  0.1056 -0.4414
 7006S        S13810   5.828   5.375  12.950  0.0256 -0.2519  0.0007
 7007S        S13811  10.551   6.479  13.866 -0.2438  0.2354  0.0462
 7008S        S13812   4.813   0.077  19.081  0.2748  0.1202  0.2457
 7009S        S13813   1.448   5.420  24.466  0.4248  0.1441  0.3089
 7010S        S13814   1.399   7.502  14.694  0.2101 -0.4908 -0.6445
 7011S        S13815   4.017   4.689  23.565 -0.3943 -0.1570 -0.1636
 7012S        S13816   6.307   1.131  22.272 -0.0724  0.1705 -0.0086
 7013S        S13817  10.203   5.242  13.230 -0.1436 -0.0805 -0.2269
 7014S        S13818   5.616   4.623  17.909  0.2216 -0.5759 -0.0463
 7015S        S13819   2.563   0.384  27.560  0.3261 -0.4055  0.4644
 7016S        S13820   6.548   4.256  12.532  0.0953  0.6282  0.3268
 7017S        S13821   3.662   7.938  20.833  0.4173 -0.1784  0.4373
 7018S        S13822  10.467   2.762  32.811 -0.1382  0.1183  0.6046
 7019S        S13823   7.016   7.011  27.186 -0.3784 -0.0731  0.1032
 7020S        S13824   2.613  11.725  23.278 -0.3527  0.2684 -0.3483
 7021S        S13825   7.169   2.383  26.256  0.1968  0.1223 -0.0586
 7022S        S13826   9.189   7.074  21.706  0.0273 -0.2617  0.3223
 7023S        S13827   9.189   8.245  16.615  0.1304  0.0062 -0.0925
 7024S        S13828   2.157   0.840  11.679  0.2857 -0.4099 -0.1899
 7025S        S13829   0.838   8.924  25.723 -0.5053 -0.2294  0.0175
 7026S        S13830   8.929   6.043  19.001 -0.3235  0.4547  0.3125
 7027S        S13831   0.877   5.772  14.899  0.5171  0.2565 -0.3802
 7028S        S13832   9.580   8.115  23.147 -0.1349 -0.2287  0.0979
 7029S        S13833   4.989   7.639  31.817  0.1106 -0.6968 -0.2497
 7030S        S13834   4.110   6.094   5.767 -0.3138  0.2531  0.0399
 7031S        S13835   6.283   9.578  21.248  0.3227 -0.3210 -0.2570
 7032S        S13836   8.085   8.020  22.331  0.0891 -0.1425  0.1484
 7033S        S13837   0.518   5.241  19.913  0.5138 -0.1213 -0.1941
 7034S        S13838   4.116  11.217  14.115 -0.0886  0.1936  0.1243
 7035S        S13839   3.202   0.943  21.148  0.5037  0.2835 -0.3630
 7036S        S13840   2.659  10.116  26.397 -0.3506 -0.4465 -0.1341
 7037S        S13841   6.000   7.223  24.533 -0.0208  0.4605  0.2388
 7038S        S13842   0.247  10.256  24.799 -0.0290  0.1626 -0.3454
 7039S        S13843   8.526   9.147  21.888  0.1250 -0.0390  0.1557
 7040S        S13844  11.715   7.065  11.756  0.2603  0.5465  0.0899
 7041S        S13845   6.080   5.831  18.246 -0.1709  0.0936 -0.2617
 7042S        S13846   9.070   4.109  29.705 -0.1672  0.0924  0.7532
 7043S        S13847   6.482   7.660  23.126  0.3345 -0.4670  0.2157
 7044S        S13848   3.149   1.909  23.537 -0.0773 -0.2115  0.3884
 7045S        S13849   9.580   7.286  12.488  0.3897  0.0614  0.3834
 7046S        S13850   6.489   0.497  44.948  0.0860  0.0220  0.4428
 7047S        S13851  11.528  11.442  17.190  0.0639  0.0696  0.4134
 7048S        S13852  11.301   5.300  14.672 -0.3185 -0.1825  0.2805
 7049S        S13853   1.503  10.065  11.639 -0.1145 -0.0405  0.5040
 7050S        S13854   8.034  10.584  17.893 -0.4650  0.2030 -0.2000
 7051S        S13855   7.480   2.397  16.718 -0.2862 -0.1522 -0.4848
 7052S        S13856   0.897   3.131  12.250 -0.0550  0.2492  0.0698
 7053S        S13857   6.948   5.418  22.573  0.3008  0.5311 -0.2788
 7054S        S13858   3.609   3.593  26.018  0.1049  0.1728  0.4879
 7055S        S13859   7.566   4.020  12.919 -0.1893  0.1989  0.1077
 7056S        S13860  11.147   7.108  19.720 -0.2949  0.3378 -0.4656
 7057S        S13861   1.727  10.496  24.759  0.0999 -0.0380 -0.2990
 7058S        S13862  10.398   5.962  15.399  0.4279 -0.3661 -0.1146
 7059S        S13863   8.681   3.331  24.729 -0.0115 -0.4636  0.1838
 7060S        S13864  11.247  11.392  33.225  0.2104  0.1062 -0.1831
 7061S        S13865  12.129   5.670  13.324 -0.4346 -0.3881 -0.0551
 7062S        S13866  10.437   7.667  27.270 -0.5095 -0.3874 -0.6050
 7063S        S13867   6.148   9.305  27.128  0.2112 -0.0746 -0.3368
 7064S        S13868   3.605   8.798  24.147 -0.3000 -0.2855  0.2434
 7065S        S13869   4.441   2.995  24.049  0.4407  0.2208 -0.4887
 7066S        S13870  11.366   0.444  17.633  0.3305 -0.1870  0.2609
 7067S        S13871   8.944  12.050  31.986  0.2272  0.1616 -0.1838
 7068S        S13872  10.901   9.462   3.253  0.2035 -0.1058 -0.1376
 7069S        S13873   4.778   0.324  12.286  0.0920 -0.2269 -0.3577
 7070S        S13874   4.187   1.844  31.597 -0.0211 -0.1857  0.5812
 7071S        S13875   6.837   8.764  15.120  0.4309 -0.6978  0.3344
 7072S        S13876   6.877   2.388  14.514 -0.0097 -0.1857  0.4163
 7073S        S13877   4.730   2.500  14.934 -0.3537 -0.5123  0.0222
 7074S        S13878   6.383   6.634  17.380  0.2861 -0.0018 -0.0378
 7075S        S13879  11.981   0.718  18.679 -0.0128 -0.1218 -0.0008
 7076S        S13880   8.777   8.789  11.559 -0.0457  0.0424 -0.1854
 7077S        S13881   9.359  11.165  22.078  0.1099  0.3921  0.4749
 7078S        S13882  11.421   8.909  17.737  0.1382  0.0883 -0.0396
 7079S        S13883   9.982  12.106  27.979  0.2882 -0.0190  0.7467
 7080S        S13884   1.616   2.504  27.120 -0.4725 -0.4721  0.0087
 7081S        S13885   5.415  10.306  21.065 -0.6219  0.0729  0.2081
 7082S        S13886  12.125   0.477  15.051  0.1481 -0.4293  0.0887
 7083S        S13887   2.989  10.133  31.397  0.1987 -0.0170  0.1516
 7084S        S13888   3.753   1.468  25.596 -0.1967  0.0501  0.2976
 7085S        S13889   2.487  10.488  17.927  0.0637 -0.5380  0.2107
 7086S        S13890  10.829   6.560  24.895 -0.4951 -0.4315  0.5528
 7087S        S13891   7.263   7.322  17.613 -0.4865 -0.4432 -0.2508
 7088S        S13892  10.016   5.191  31.907 -0.4914  0.2354 -0.2793
 7089S        S13893   3.255   0.506  30.055 -0.3048  0.1426  0.0172
 7090S        S13894   5.846   8.204  18.265  0.0528  0.1952 -0.1724
 7091S        S13895   8.756   2.349  23.923 -0.5001  0.4269 -0.2053
 7092S        S13896   2.620   0.039  26.403 -0.1917  0.0028 -0.1304
 7093S        S13897   8.744   9.455  20.938 -0.1468  0.1371 -0.4717
 7094S        S13898   7.358  10.335  12.070  0.0194 -0.0605  0.3191
 7095S        S13899   8.086   2.379  28.667  0.2332  0.2177  0.2207
 7096S        S13900  10.125   1.614  25.728  0.6071  0.2530 -0.5154
 7097S        S13901   6.765   6.993  15.434  0.0698 -0.3359 -0.2490
 7098S        S13902   7.426  10.946  27.691  0.1034  0.1295 -0.2805
 7099S        S13903   8.755   8.773  20.955 -0.4516  0.0418 -0.3700
 7100S        S13904  10.653  11.720  17.694 -0.3361 -0.0745  0.2581
 7101S        S13905   1.945  11.300  14.225  0.4153  0.3026 -0.2502
 7102S        S13906  11.324   6.567  16.854  0.2639 -0.3462  0.2682
 7103S        S13907   8.758   4.975  23.902 -0.1454  0.1589 -0.2060
 7104S        S13908   7.933   0.654  14.503  0.2164  0.3861 -0.0431
 7105S        S13909   6.945   4.316  12.232 -0.4624 -0.1721  0.3270
 7106S        S13910   4.209  11.966  16.681 -0.6544  0.1171 -0.3091
 7107S        S13911   2.004   6.527  18.191 -0.8263 -0.1154 -0.3033
 7108S        S13912   5.770   2.773  16.289 -0.0177  0.3395  0.2690
 7109S        S13913   7.927   9.030  28.525  0.8111 -0.1333  0.3532
 7110S        S13914  11.172   9.375  32.039  0.0203 -0.3221  0.1206
 7111S        S13915   1.955   9.949  25.817 -0.2304 -0.0771 -0.2407
 7112S        S13916   6.309   9.164  20.376  0.1085  0.3758  0.2530
 7113S        S13917   9.077   0.107  14.241 -0.5819 -0.0373  0.1752
 7114S        S13918  10.341   0.279  26.997 -0.1184  0.3745  0.1210
 7115S        S13919  10.441   2.480  20.801 -0.0932  0.0120  0.0295
 7116S        S13920   3.119   2.502  18.641 -0.2926  0.2136 -0.3323
 7117S        S13921   1.637   0.743  27.544  0.3162 -0.3539  0.2828
 7118S        S13922   5.693   5.528  18.207  0.1011 -0.3649  0.2869
 7119S        S13923   1.183   1.956  22.466 -0.1189  0.3541 -0.0656
 7120S        S13924   4.966   4.591  21.288 -0.3051  0.1188  0.0044
 7121S        S13925   8.627   0.924  14.517 -0.0465 -0.5533 -0.0364
 7122S        S13926   3.920   1.114  21.739 -0.0123  0.3108 -0.0456
 7123S        S13927   5.735  11.461  17.821 -0.1226 -0.8290  0.0689
 7124S        S13928   9.584   5.556  12.860  0.0708 -0.1006  0.0629
 7125S        S13929  10.999   0.662  18.119 -0.3857  0.1021  0.0304
 7126S        S13930  10.822   4.971  13.131  0.0649 -0.2375  0.3030
 7127S        S13931   3.797   7.546  13.302 -0.5324  0.5495 -0.1231
 7128S        S13932  11.241  10.715  16.656 -0.1191 -0.2154  0.0710
 7129S        S13933  11.487   0.369  17.080 -0.2727  0.2779  0.1871
 7130S        S13934   3.154   2.203  21.916  0.0710  0.3485 -0.3577
 7131S        S13935   9.533   8.073  19.343 -0.4086  0.2977 -0.0268
 7132S        S13936  10.217  11.363  25.093  0.4161 -0.5251 -0.2092
 7133S        S13937   6.263   2.259  12.414 -0.3156 -0.2333 -0.0272
 7134S        S13938   0.903   2.047  13.358 -0.5184 -0.4339  0.0228
 7135S        S13939   2.510  11.884  30.394 -0.2980  0.1494 -0.3814
 7136S        S13940   5.677   1.232  12.155  0.4823 -0.5958 -0.0269
 7137S        S13941   0.046   9.730  11.869 -0.0256 -0.2971  0.2736
 7138S        S13942   6.980   8.444  20.688  0.2129 -0.1864  0.0290
 7139S        S13943   7.132   2.824  40.780  0.0097 -0.0757  0.4967
 7140S        S13944   2.392   1.877  24.733  0.0646  0.6927 -0.2118
 7141S        S13945   9.096   7.366  23.689  0.0149 -0.0563  0.1395
 7142S        S13946  10.908   5.352  12.749 -0.0981 -0.5823  0.3810
 7143S        S13947   7.732   3.257  28.925 -0.5124 -0.4077  0.0702
 7144S        S13948   6.852   3.190  12.766  0.0092  0.0344  0.0133
 7145S        S13949   7.445   0.256  27.200  0.3290  0.1900  0.0860
 7146S        S13950   0.332   8.092  27.801  0.1510  0.2717 -0.3373
 7147S        S13951   1.812   6.970  21.034  0.1059 -0.4116  0.2229
 7148S        S13952   5.250   1.929  26.885 -0.1658 -0.0855  0.3247
 7149S        S13953  10.812   0.536  15.804  0.3232  0.0165 -0.0157
 7150S        S13954   3.757   9.613  16.411 -0.0957 -0.0993  0.2141
 7151S        S13955   4.592   1.247  23.835 -0.0139  0.6549 -0.0455
 7152S        S13956   8.117   8.473  13.639  0.0302  0.0364 -0.0103
 7153S        S13957   7.867   9.408  19.145  0.1422 -0.1845 -0.2192
 7154S        S13958   9.227  11.272  18.616  0.2528 -0.2271 -0.3437
 7155S        S13959   0.959   7.695  18.220 -0.0169 -0.7196  0.3879
 7156S        S13960  10.209   4.855  20.344  0.1130 -0.5467 -0.1496
 7157S        S13961   9.969   8.736  13.206 -0.3471 -0.1400  0.1872
 7158S        S13962  11.489   0.373  22.475  0.3409  0.6966 -0.0074
 7159S        S13963   9.904   1.242  20.025 -0.0504 -0.2392  0.1853
 7160S        S13964   2.994   9.239  27.478  0.2068  0.6353 -0.6160
 7161S        S13965   6.116   8.097  17.338 -0.2426 -0.1192 -0.1449
 7162S        S13966   3.416   5.764  15.586  0.0119 -0.1766 -0.0528
 7163S        S13967  11.119   5.651  24.569  0.7835 -0.0203  0.5371
 7164S        S13968  10.156   2.823  23.664  0.0860  0.1011 -0.7788
 7165S        S13969  12.044   0.646  26.892  0.2840 -0.0823  0.4876
 7166S        S13970   7.434   9.977  23.125  0.3386  0.0429  0.5450
 7167S        S13971   6.540   9.249  17.449 -0.2994  0.3585  0.0997
 7168S        S13972   7.636   4.516  17.053  0.1007  0.3016 -0.6551
 7169S        S13973   4.668   8.191  21.289 -0.0034  0.4113  0.1733
 7170S        S13974   9.880   5.368  12.511 -0.0021 -0.0303 -0.3711
 7171S        S13975   5.905   1.925  12.659  0.4594 -0.2995 -0.3013
 7172S        S13976  12.358   8.756  31.155 -0.2240  0.9238  0.6134
 7173S        S13977   8.443   7.461  27.829  0.1173 -0.5296 -0.2991
 7174S        S13978  11.150   6.573  16.340 -0.1331  0.3237  0.1461
 7175S        S13979   5.409   0.109  21.167 -0.2773 -0.4443  0.1475
 7176S        S13980   7.840   4.060  15.155 -0.3690  0.1172 -0.1350
 7177S        S13981   8.207   4.386  17.640  0.3710  0.4887 -0.2330
 7178S        S13982  12.208   7.588  34.142  0.0622  0.3005  0.1413
 7179S        S13983   8.928   9.899  25.236  0.1796  0.1195  0.0859
 7180S        S13984   7.732   7.128  23.238  0.4469 -0.0445 -0.8313
 7181S        S13985  10.525   4.657  27.119 -0.5933 -0.0295  0.3791
 7182S        S13986   8.589   7.333  25.401  0.0920  0.1101 -0.2764
 7183S        S13987   8.120   3.083  19.767  0.1163 -0.1247 -0.2009
 7184S        S13988   6.297  11.470  16.143  0.0024 -0.0589  0.0850
 7185S        S13989   4.896  10.704   9.095  0.4179  0.1483 -0.0630
 7186S        S13990  10.080  11.454  19.299  0.2412 -0.1692 -0.4726
 7187S        S13991   2.829   6.402  19.318  0.1168  0.0251 -0.1495
 7188S        S13992   0.466  11.279  13.012  0.4031  0.3968  0.4568
 7189S        S13993   4.698   4.927  13.907  0.0963  0.1731  0.1883
 7190S        S13994  10.111   6.543  20.397 -0.0315 -0.0264  0.1531
 7191S        S13995   6.698   5.260  13.891 -0.3389  0.1464  0.0833
 7192S        S13996   1.484   8.513  17.579  0.4376  0.3313 -0.0325
 7193S        S13997  10.094  11.345  17.179 -0.3775  0.0704  0.1119
 7194S        S13998   8.514  10.164  19.946 -0.0438  0.2940  0.0349
 7195S        S13999  10.813   7.296  27.288 -0.3468 -0.1642 -0.4912
 7196S        S14000   3.160   3.853  16.311 -0.3576  0.0877  0.0656
 7197S        S14001   9.498   7.127  31.547  0.0920  0.8874  0.5542
 7198S        S14002   1.532  10.781  12.046  0.0105  0.0321  0.3005
 7199S        S14003  11.967   7.426  25.995  0.1886  0.0049 -0.0427
 7200S        S14004   9.882   6.761  15.615 -0.0930  0.0575 -0.3334
 7201S        S14005   7.865   1.610  11.174 -0.0820 -0.2410  0.4669
 7202S        S14006   2.369   5.730  13.057  0.2772  0.1906 -0.4718
 7203S        S14007   5.260   1.330  15.788 -0.3290 -0.4122  0.0875
 7204S        S14008  10.895  12.249  32.700  0.0996 -0.5002  0.7794
 7205S        S14009   1.588  10.075  13.729  0.1313 -0.1518  0.1827
 7206S        S14010   8.497   2.035  24.244 -0.4783 -0.2260  0.2706
 7207S        S14011   4.626   9.912  13.269 -0.2029  0.2364 -0.2684
 7208S        S14012  11.642   5.464  30.149 -0.2526 -0.4655 -0.0598
 7209S        S14013   9.370  10.134  29.656 -0.1744  0.2090 -0.4114
 7210S        S14014   7.248   9.468  13.469  0.0500 -0.2108 -0.1687
 7211S        S14015   5.401   5.893  29.158 -0.1686 -0.3292 -0.0976
 7212S        S14016   0.975   9.570  20.818  0.0236  0.0010 -0.3500
 7213S        S14017   5.750   5.672  19.474 -0.3549  0.5220 -0.2256
 7214S        S14018  11.984   4.089  26.642 -0.2154 -0.1098  0.1487
 7215S        S14019   6.365  12.057  30.189 -0.0549  0.2137 -0.3218
 7216S        S14020   0.085   0.937   2.569 -0.2383  0.2953 -0.0191
 7217S        S14021   1.860   1.816  29.072  0.7481  0.2934  0.2938
 7218S        S14022   1.767   6.776  14.218 -0.2730  0.4890 -0.0381
 7219S        S14023   2.131   4.328  22.690  0.4713  0.2163 -0.3247
 7220S        S14024   1.594   7.539  13.848  0.5130  0.0963  0.2410
 7221S        S14025   8.758   4.502  46.592 -0.1082 -0.0298 -0.3301
 7222S        S14026  10.177   5.228  29.567 -0.3393 -0.0696  0.3558
 7223S        S14027   0.485   0.234  24.543  0.0594 -0.1226 -0.4925
 7224S        S14028   7.686   4.581  11.205 -0.1990  0.3397  0.4810
 7225S        S14029   6.834  12.343  24.276 -0.1285  0.3006  0.3531
 7226S        S14030   5.744  10.949  20.222 -0.2383  0.2691  0.1715
 7227S        S14031   3.839   3.402  16.780 -0.5650  0.1991  0.5516
 7228S        S14032   8.176   9.402  19.552 -0.0412  0.1661 -0.2364
 7229S        S14033   5.993   6.049  20.301  0.3068 -0.5905 -0.4977
 7230S        S14034  10.484   1.314  18.836  0.2113 -0.0345  0.3017
 7231S        S14035   7.255  10.329  22.738  0.0024 -0.0324 -0.6472
 7232S        S14036   3.508   8.014  16.513 -0.1744  0.0663  0.4538
 7233S        S14037   9.334   6.633  28.108  0.3840  0.6050  0.1899
 7234S        S14038   1.467   8.288  23.961  0.1727 -0.0041  0.0886
 7235S        S14039   9.509   8.827  20.893 -0.0870  0.0471  0.0831
 7236S        S14040  11.232   4.013  18.090 -0.2129 -0.1032 -0.0992
 7237S        S14041   3.871   0.018  30.039  0.2560  0.1162  0.0808
 7238S        S14042   3.858   5.933  16.385  0.0686 -0.2236 -0.2077
 7239S        S14043  10.345   0.961  30.380  0.0129  0.3029 -0.4719
 7240S        S14044   6.188   5.728  23.694  0.0988 -0.0160  0.0596
 7241S        S14045   1.962   7.876  15.375  0.2233  0.2062 -0.2388
 7242S        S14046   9.951  11.371  19.852  0.1336  0.5482 -0.5921
 7243S        S14047   0.774   8.902  20.845  0.1632 -0.0092 -0.0240
 7244S        S14048  11.365   7.389  24.245 -0.3730  0.2062  0.1287
 7245S        S14049   5.337   9.892  10.192  0.0888 -0.3322  0.3523
 7246S        S14050   4.274   3.048  16.571 -0.1304  0.5307  0.2272
 7247S        S14051  11.947  10.697  21.904  0.1940 -0.4659 -0.1948
 7248S        S14052   7.651   0.302  30.380 -0.0568 -0.0007 -0.5125
 7249S        S14053   9.544  11.034  23.352 -0.1923 -0.1498  0.1423
 7250S        S14054  11.470   5.947  17.377  0.3401 -0.0902 -0.0468
 7251S        S14055   0.982   1.509  15.901 -0.3493 -0.3360 -0.0343
 7252S        S14056   8.949   9.467  22.468 -0.5237  0.2257 -0.4345
 7253S        S14057   5.559   2.158  21.358  0.3714 -0.2566 -0.2620
 7254S        S14058   2.326   9.761  21.467  0.0730 -0.0334 -0.0209
 7255S        S14059   7.485   1.730  14.294  0.1133  0.2471  0.3835
 7256S        S14060  11.713   5.389  24.926  0.2928  0.3399 -0.6248
 7257S        S14061  11.339   4.779  19.247 -0.0478 -0.4107  0.0802
 7258S        S14062   7.800  10.242  27.657  0.2295 -0.5490 -0.4142
 7259S        S14063   7.019  11.437  18.600 -0.0296  0.0113 -0.0046
 7260S        S14064   5.892   2.317  15.604  0.2713 -0.2686 -0.7292
 7261S        S14065   7.870   2.009  24.596  0.5838  0.2307  0.0087
 7262S        S14066   4.283   4.252  25.355  0.2233  0.7352  0.0402
 7263S        S14067   7.877   3.912  22.871  0.4709  1.0448  0.1402
 7264S        S14068   1.154   9.157  28.363 -0.1520 -0.0086 -0.0033
 7265S        S14069   5.798   3.451  28.046 -0.3264  0.5124  0.3090
 7266S        S14070   9.987   5.102  15.667  0.2679  0.0295  0.1771
 7267S        S14071   3.896   2.591  12.368 -0.2000 -0.0362 -0.4316
 7268S        S14072  12.063   8.070  25.108 -0.2032  0.0861 -0.1076
 7269S        S14073  12.009  10.651  25.110 -0.0648 -0.1838 -0.0106
 7270S        S14074   1.323   9.188  13.867  0.0778 -0.0103 -0.1205
 7271S        S14075   3.396   3.177  19.982 -0.0898 -0.5444  0.1177
 7272S        S14076   0.767   1.501  24.987  0.0632  0.1754 -0.3375
 7273S        S14077   5.411   0.814  26.031 -0.6727  0.4962 -0.7159
 7274S        S14078   0.095   2.126  31.697 -0.2171 -0.3981 -0.0612
 7275S        S14079   0.383   9.064  20.590  0.0891 -0.1263  0.0576
 7276S        S14080   7.741  10.942  23.209 -0.0546  0.2830 -0.0066
 7277S        S14081   3.931  10.927  30.708 -0.2679 -0.2914 -0.3385
 7278S        S14082  10.314   5.551  17.196 -0.6422  0.1327  0.1028
 7279S        S14083   5.366   6.883   1.386  0.1351  0.1281 -0.0528
 7280S        S14084   7.300   4.865  16.255 -0.3800 -0.2523  0.0372
 7281S        S14085   0.196   0.387  23.507 -0.6657 -0.1872  0.4989
 7282S        S14086   4.722   4.943  15.364  0.0600  1.0537 -1.1703
 7283S        S14087   6.822   6.838  28.553 -0.1527 -0.2888  0.4492
 7284S        S14088   9.363   5.120  18.640 -0.3514 -0.2917  0.0070
 7285S        S14089   8.456   4.632  19.055  0.2683 -0.2765  0.4052
 7286S        S14090   0.150  11.159  12.529  0.2839 -0.3670  0.2395
 7287S        S14091   8.586   4.000  19.436 -0.0485 -0.6576 -0.1031
 7288S        S14092   9.609   8.334  20.700  0.2419 -0.5500  0.1408
 7289S        S14093  10.576   8.862  18.891 -0.2147 -0.4876 -0.0769
 7290S        S14094   4.952   0.815  30.684 -0.2992  0.0484 -0.3296
 7291S        S14095   9.258   0.765  19.547 -0.0429  0.7016  0.0693
 7292S        S14096  12.081   4.998  26.397  0.4133 -0.3777  0.0813
 7293S        S14097   2.145   7.780  28.864 -0.3732  0.2189 -0.4199
 7294S        S14098   7.530   4.546  14.232 -0.2692  0.1323 -0.5450
 7295S        S14099  10.562   1.602  31.617 -0.4276 -0.5044  0.0277
 7296S        S14100   1.942   4.580  25.403  0.4536  0.3977  0.5610
 7297S        S14101   8.228   0.249  20.249 -0.2832 -0.5555 -0.6787
 7298S        S14102   8.987  11.650  26.533  0.3071  0.1907  0.2059
 7299S        S14103   0.725   9.679  27.408  0.1071  0.4587 -0.3084
 7300S        S14104   3.703   9.994  24.313 -0.1361  0.0237 -0.6220
 7301S        S14105   7.339   1.210  31.915 -0.4235 -0.5775 -0.0113
 7302S        S14106   3.381   2.719  11.641 -0.2997 -0.0530 -0.1715
 7303S        S14107   2.977   1.610  27.734 -0.4200  0.2943 -0.3692
 7304S        S14108   6.393   3.242  24.144 -0.7211 -0.1132 -0.1498
 7305S        S14109  11.865   4.319  11.752  0.3465 -0.2956 -0.2956
 7306S        S14110  11.674  10.033  30.933  0.2395 -0.3303 -0.2575
 7307S        S14111  10.877   6.144  18.991 -0.4919 -0.1806 -0.3330
 7308S        S14112   5.164   1.141  17.337  0.6954  0.2506  0.4554
 7309S        S14113   3.452   5.140  19.734 -0.0100 -0.2563 -0.3984
 7310S        S14114   0.121  12.357  28.139  0.2236  0.3484 -0.5954
 7311S        S14115  11.824   4.109  30.968  0.1556  0.0326  0.1333
 7312S        S14116   8.426   4.002  30.175  0.0972  0.2720  0.5771
 7313S        S14117  12.339   1.138  25.760 -0.3892  0.0887 -0.2576
 7314S        S14118   7.411   5.746  24.649  0.4399 -0.0997 -0.4220
 7315S        S14119   4.440   6.160  19.850  0.4280  0.4597 -0.1639
 7316S        S14120   8.162   4.206  19.204 -0.1257  0.1398 -0.4206
 7317S        S14121   2.745   7.890  14.814  0.2637 -0.0374  0.0287
 7318S        S14122   2.475   9.308  16.056  0.0119  0.1836 -0.1209
 7319S        S14123  10.431   0.284  31.577  0.1905  1.1008  0.2278
 7320S        S14124   0.067   6.494  12.330  0.1977  0.0433 -0.1243
 7321S        S14125   7.572  11.926  23.505 -0.1261 -0.3759  0.3567
 7322S        S14126   2.032   3.988  18.717  0.1603  0.2192  0.1847
 7323S        S14127   4.581   5.638  20.495 -0.1747  0.0696 -0.2384
 7324S        S14128  11.727   3.743  19.163 -0.0983 -0.2999  0.1726
 7325S        S14129   8.044   2.384  24.152 -0.0495 -0.1180  0.9159
 7326S        S14130   5.502  10.149  20.556  0.2295 -0.1159  0.0679
 7327S        S14131   0.318   1.827  23.290 -0.3714 -0.1227 -0.3328
 7328S        S14132   4.619   3.907  14.181 -0.3225  0.3653 -0.0472
 7329S        S14133  11.444   9.602  17.205  0.0373 -0.2193  0.1802
 7330S        S14134   5.349   3.183  24.637 -0.0909 -0.1486 -0.2341
 7331S        S14135   8.374   1.514  28.429  0.2905  0.1255 -0.1940
 7332S        S14136   8.921   9.934  24.067 -0.1612  0.1886 -0.2028
 7333S        S14137   3.028   9.634  12.729  0.0361  0.3715 -0.1125
 7334S        S14138   3.764   9.815  29.271 -0.1786  0.2515  0.4481
 7335S        S14139   5.252  10.454   9.532  0.2263 -0.1439  0.0762
 7336S        S14140   7.826   5.970  12.828 -0.1585 -0.5124  0.0539
 7337S        S14141   1.587  10.791  23.823  0.0599  0.0846 -0.0649
 7338S        S14142   9.293   3.568  16.452 -0.8416  0.3829  0.4197
 7339S        S14143   4.635   8.494  25.544  0.0626  0.1135 -0.5452
 7340S        S14144   6.243   3.406  14.862 -0.0924  0.0656 -0.0051
 7341S        S14145   1.226   9.297  11.919 -0.2576 -0.1744 -0.0966
 7342S        S14146   4.609  11.903  12.852  0.6308  0.2141  0.0932
 7343S        S14147   8.632   1.271  17.917  0.1532 -0.1131 -0.1439
 7344S        S14148   9.697   8.951  13.887  0.0396 -0.0389 -0.1538
 7345S        S14149   4.797   5.311  19.763 -0.1309  0.3172 -0.0160
 7346S        S14150  12.152   5.150  13.304 -0.2390 -0.4195  0.3080
 7347S        S14151   8.803   4.141  25.649  0.2135 -0.3494  0.1000
 7348S        S14152   5.864   0.532  32.358 -0.7447  0.3856 -0.4851
 7349S        S14153   1.429  11.072  20.080 -0.8085  0.3250  0.5551
 7350S        S14154   0.659   8.637  29.068  0.4901 -0.1531 -0.5716
 7351S        S14155   9.673   7.371  17.036  0.0445 -0.1062  0.4413
 7352S        S14156   6.179   7.865  18.835 -0.3168  0.6380 -0.0966
 7353S        S14157   5.706   8.961  19.445 -0.1869  0.3432 -0.3543
 7354S        S14158   6.479   2.266  30.965 -0.5839 -0.0751 -0.3275
 7355S        S14159   6.707   5.060  17.414  0.2485  0.3123  0.1880
 7356S        S14160   4.502  12.063  28.073  0.2283 -0.2345  0.4047
 7357S        S14161  12.287   4.322  14.245  0.0179 -0.1206  0.4130
 7358S        S14162   0.903   9.758  15.779  0.0869  0.0302  0.2355
 7359S        S14163   5.613   7.086  13.343 -0.6493 -0.6028 -0.0139
 7360S        S14164  10.068   3.800  21.233  0.0450  0.3734 -0.3549
 7361S        S14165   8.066   5.449  17.976 -0.1371 -0.1820  0.1379
 7362S        S14166   8.942   0.279  15.780 -0.1065 -0.0156  0.3151
 7363S        S14167   9.669  11.453  10.857  0.2234 -0.1582 -0.5888
 7364S        S14168  10.632   2.764  12.054 -0.1511  0.1440 -0.2129
 7365S        S14169  12.032   0.101   3.801 -0.0128 -0.1666  0.3184
 7366S        S14170   1.810   7.784  17.634 -0.2212  0.4159 -0.5392
 7367S        S14171   8.545   5.422  28.252  0.3428  0.1371  0.3308
 7368S        S14172   7.932   5.465  17.002  0.0755 -0.0329  0.0344
 7369S        S14173   3.315   7.540  21.098  0.2044  0.0957 -0.0198
 7370S        S14174  11.292  10.292  26.226  0.3751 -0.4516  0.3628
 7371S        S14175   7.466   9.533  20.542  0.3970  0.2409  0.2027
 7372S        S14176   8.883   0.714  17.811  0.1246 -0.0877  0.2812
 7373S        S14177   2.087   7.209  12.030 -0.1494 -0.2783  0.1441
 7374S        S14178   6.604   4.842  17.867 -0.3777 -0.1687  0.1905
 7375S        S14179   2.165   9.167  20.260  0.4545  0.2925  0.0482
 7376S        S14180   5.430   9.141  20.809 -0.4935 -0.1232  0.0542
 7377S        S14181  11.503   5.342  11.726  0.2689  0.5641 -0.4391
 7378S        S14182  11.527   0.401  25.272  0.0104  0.0719  0.0714
 7379S        S14183   9.840   3.171  13.889  0.0299  0.2688 -0.3152
 7380S        S14184  11.850   6.250  16.242 -0.2838  0.1869  0.4121
 7381S        S14185   1.123  11.306  29.526  0.1017  0.4121  0.0654
 7382S        S14186   8.087   6.772  30.955  0.0446 -0.0367 -0.4547
 7383S        S14187   0.011  10.869  22.350 -0.2708 -0.6447  0.2080
 7384S        S14188   7.448   7.619  15.884 -0.0436  0.2867 -0.1015
 7385S        S14189   4.004   5.580  24.579  0.1473 -0.2553 -0.7478
 7386S        S14190   9.581   5.890  15.557  0.0833  0.0715  0.4171
 7387S        S14191  10.426   8.569  11.115 -0.2022  0.4809 -0.0565
 7388S        S14192   8.662  10.597  28.430 -0.1178 -0.2247  0.4363
 7389S        S14193  10.560   8.859  24.315 -0.5869  0.2771 -0.3170
 7390S        S14194   7.013  11.224  16.745  0.0450  0.0543 -0.2552
 7391S        S14195   5.568   3.669  16.070 -0.2244  0.4835  0.0141
 7392S        S14196  11.098  11.898  30.458  0.0778  0.4743 -0.5039
 7393S        S14197   2.071  11.213  18.189  0.2175  0.1914  0.2104
 7394S        S14198   4.259   2.722  29.280 -0.0124 -0.2281  0.3931
 7395S        S14199   5.150   9.185  23.939  0.0284  0.0489 -0.0432
 7396S        S14200   5.032   3.050  12.278  0.4824  0.7242 -0.0176
 7397S        S14201   1.181   6.326  21.522 -0.1149 -0.0874 -0.4042
 7398S        S14202   3.569   3.154  23.900  0.0906 -0.3028  0.1520
 7399S        S14203   8.140   3.474  29.175 -0.2506 -0.0337  0.1665
 7400S        S14204   3.058   2.691  25.458  0.0930  0.8409  0.0198
 7401S        S14205   0.023   5.913  28.271 -0.0394 -0.0765  0.2135
 7402S        S14206   4.034  10.843  19.424 -0.3438 -0.3706  0.1809
 7403S        S14207   7.240  11.141  16.278  0.1003  0.3050 -0.4634
 7404S        S14208   1.130   9.842  16.209  0.1738 -0.0926  0.1717
 7405S        S14209   1.757   2.052  13.531 -0.6178 -0.5711 -0.6719
 7406S        S14210   0.982   6.305  12.346 -0.2444 -0.7957 -0.1124
 7407S        S14211   3.185   2.076  22.973 -0.5181  0.1899 -0.0990
 7408S        S14212   4.426   4.799  25.904  0.2851  0.2819  0.1974
 7409S        S14213   8.690   3.745  13.856  0.4489 -0.2377  0.0851
 7410S        S14214   2.712   9.501  25.201  0.1841 -0.1908 -0.1527
 7411S        S14215   6.830   5.101  14.428 -0.5909 -0.2839  0.3708
 7412S        S14216   6.416  10.859  13.821  0.1904 -0.0255  0.2024
 7413S        S14217  11.891   6.909  26.028  0.6760 -0.5308 -0.1865
 7414S        S14218   2.501   9.711  26.210  0.5767  0.1776 -0.0343
 7415S        S14219   4.000   2.479  20.335  0.1337  0.6269  0.2937
 7416S        S14220   3.604   8.201  17.033  0.0939  0.1416  0.1385
 7417S        S14221   4.495   9.868  12.008 -0.4196  0.6201  0.0087
 7418S        S14222   4.296   6.977  11.886 -0.2625 -0.4290  0.1442
 7419S        S14223   2.079  11.662  13.910 -0.1150  0.1302 -0.1075
 7420S        S14224   7.347   3.374  21.608 -0.1725  0.1913 -0.0019
 7421S        S14225   1.703  12.248  13.225 -0.3095  0.1046  0.0272
 7422S        S14226   7.087   7.932  15.375  0.0609 -0.5764 -0.2195
 7423S        S14227   4.257   8.969  19.767  0.4938  0.0577 -0.0438
 7424S        S14228   4.802   7.382   9.499 -0.2147 -0.2824  0.0776
 7425S        S14229   2.155   5.753  22.722 -0.7277 -0.6947 -0.4388
 7426S        S14230   8.974   8.902  29.585  0.0300  0.2669 -0.3148
 7427S        S14231   3.600   9.803  20.260 -0.1430 -0.3114  0.2970
 7428S        S14232   8.619   3.424  20.171  0.2066 -0.4535  0.1010
 7429S        S14233   0.894   4.546  12.865 -0.4224  0.2429  0.0929
 7430S        S14234   3.940   7.743  23.149 -0.1406  0.4090  0.2120
 7431S        S14235   4.799   9.590  27.593  0.1997 -0.6917  0.1596
 7432S        S14236  11.556   0.716  11.947 -0.2371  0.0029  0.9577
 7433S        S14237   1.831   0.607  12.507  0.0418  0.2428  0.3945
 7434S        S14238   1.898   5.299  12.062 -0.0145 -0.4616  0.5195
 7435S        S14239   4.760  11.815  25.980  0.1842 -0.5493 -0.1617
 7436S        S14240   9.164   6.252  33.604 -0.2152  0.1359  0.0631
 7437S        S14241   6.706   5.084  25.414 -0.1032 -0.3714  0.4322
 7438S        S14242  10.438   2.250  27.042 -0.2617  0.5524 -0.3744
 7439S        S14243   0.394   1.318  21.295  0.1807 -0.3134  0.4515
 7440S        S14244   6.546   3.228  29.189 -0.6087  0.3111  0.0945
 7441S        S14245   2.860   8.998  16.290  0.3379  0.2296 -0.1560
 7442S        S14246   7.029   3.665  14.214 -0.2282 -0.3352 -0.4631
 7443S        S14247   7.229   6.973  21.885 -0.1145  0.0901 -0.4010
 7444S        S14248   8.515   9.856  16.863 -0.4444 -0.2552  0.5369
 7445S        S14249   0.176  10.877  17.222  0.1569 -0.1210 -0.5574
 7446S        S14250  11.124   6.655  22.206  0.3307  0.1675 -0.0628
 7447S        S14251  10.706   0.914  13.781  0.0456 -0.4743  0.0095
 7448S        S14252   1.498   2.250  16.486  0.2606 -0.1399  0.4003
 7449S        S14253   0.712   8.420  17.864 -0.0735 -0.1973 -0.2992
 7450S        S14254   8.663   7.998  28.502  0.5311  0.0667 -0.0213
 7451S        S14255   3.475   8.795  28.189  0.1572 -0.0964 -0.2388
 7452S        S14256   7.779   9.086  26.906  0.2028 -0.4039  0.0867
 7453S        S14257   8.733   3.403  11.378  0.1013  0.1034 -0.0496
 7454S        S14258   2.737   1.437  28.895 -0.6708 -0.6286  0.7076
 7455S        S14259   3.281   4.211  13.071  0.5285  0.1269  0.0467
 7456S        S14260   2.270   9.972  17.913  0.0513 -0.5172  0.1558
 7457S        S14261   2.658   4.639  11.978  0.1198  0.3176  0.2835
 7458S        S14262   5.726   0.511  11.856  0.4363 -0.5032  0.0309
 7459S        S14263   6.097   5.045  30.807 -0.2645 -0.0057  0.5130
 7460S        S14264   1.448   3.916  14.057  0.1575  0.0334  0.0688
 7461S        S14265   1.304   6.585  13.735 -0.0978 -0.7823 -0.2760
 7462S        S14266   6.053  11.059  29.792  0.5033  0.3087 -0.0301
 7463S        S14267  11.342   7.434  14.463  0.2342  0.1960 -0.4051
 7464S        S14268  10.274  10.276  20.524  0.1486  0.5105 -0.1578
 7465S        S14269   3.032   6.122  15.775 -0.2585  0.5498  0.6766
 7466S        S14270   8.651  10.818  21.603  0.0268  0.3907 -0.3490
 7467S        S14271   4.140   8.989  22.080  0.1669 -0.3212  0.3319
 7468S        S14272   4.530  12.183  25.259 -0.3964 -0.5948 -0.1366
 7469S        S14273   2.790   6.887  18.366 -0.0867 -0.3953 -0.5773
 7470S        S14274   2.246  12.067  26.247 -0.4092  0.2565  0.1979
 7471S        S14275   1.545   6.546  17.469  0.2381  0.1359  0.0577
 7472S        S14276  10.713   5.405  22.202 -0.0742 -0.2508  0.1047
 7473S        S14277  10.005   3.258  12.675  0.0829  0.1042 -0.1659
 7474S        S14278   6.434   3.923  25.100  0.4317  0.2267 -0.1882
 7475S        S14279   6.140   1.562  14.052  0.6594 -0.2989 -0.2240
 7476S        S14280   2.967   2.243  19.126  0.0583  0.4584  0.2627
 7477S        S14281   6.068   5.334  11.436  0.1429 -0.1401  0.0673
 7478S        S14282   5.577  11.077  15.694  0.3209 -0.1134 -0.6494
 7479S        S14283   7.259   8.136  15.900 -0.0905  0.3253  0.7135
 7480S        S14284   5.414   0.472  25.554 -0.2743 -0.2560 -0.2103
 7481S        S14285   9.389   7.661  21.535  0.1858 -0.3158 -0.4137
 7482S        S14286   6.430   1.488  29.955 -0.2443  0.1114  0.0516
 7483S        S14287  12.164   1.357  20.782 -0.3427  0.1914  0.2531
 7484S        S14288   3.760   8.931  15.185  0.4516 -0.1674  0.2104
 7485S        S14289  11.202   6.222  31.862 -0.2321 -0.2720 -0.1303
 7486S        S14290   9.033   8.181  23.177  0.0101 -0.2560 -0.0510
 7487S        S14291   8.182   1.417  20.044 -0.0557 -0.4074 -0.0661
 7488S        S14292   4.533   2.014  14.922 -0.1413 -0.2675 -0.4331
 7489S        S14293  11.029   0.174  19.569  0.3240  0.4268 -0.1935
 7490S        S14294   9.691   2.018  17.283 -0.4591  0.2248 -0.0280
 7491S        S14295   9.612   3.390  32.709 -0.1491  0.3841  0.1028
 7492S        S14296  10.973   9.841  30.692 -0.0147 -0.5925 -0.0439
 7493S        S14297  10.714   1.949  13.789  0.0282 -0.0122 -0.1572
 7494S        S14298   7.282   3.515  14.804  0.3030  0.0809 -0.2743
 7495S        S14299   3.172  11.657  26.137  0.1127 -0.2880 -0.1635
 7496S        S14300   4.819  11.068  20.056  0.4001  0.5529  0.1076
 7497S        S14301   8.268   6.911  32.568 -0.2513  0.3165 -0.3249
 7498S        S14302   1.717   7.271  27.626  0.2428  0.3901 -0.2576
 7499S        S14303   2.162   4.011  27.704 -0.2478 -0.1064 -0.1746
 7500S        S14304  10.294   8.072  19.949 -0.3130 -0.0384 -0.3169
 7501S        S14305   7.245   9.856  29.359  0.2107 -0.0878  0.5886
 7502S        S14306   4.163   3.303  21.153 -0.0265 -0.0696  0.0751
 7503S        S14307   0.215   6.953  19.246  0.1026  0.1558  0.1371
 7504S        S14308  11.341   6.794  15.852  0.1975 -0.0264 -0.0116
 7505S        S14309   2.707  11.834  26.550  0.4233  0.1837 -0.4593
 7506S        S14310   2.763   1.198  23.166  0.0205  0.4733 -0.4754
 7507S        S14311   7.554   6.591  25.138  0.0711  0.1127  0.4746
 7508S        S14312   0.290   3.250  16.667 -0.1880 -0.0845  0.8857
 7509S        S14313  11.995  10.419  18.772  0.1209  0.0688  0.3238
 7510S        S14314   0.531   5.047  22.792 -0.1569 -0.2970  0.4474
 7511S        S14315   5.990   4.887  24.024  0.5534 -0.2769  0.0119
 7512S        S14316  11.533   0.895  16.987 -0.2313 -0.0425  0.0757
 7513S        S14317   8.417  12.101  27.127  0.4516  0.2579 -0.1631
 7514S        S14318   1.463   8.805  23.263 -0.2283 -0.1598 -0.0008
 7515S        S14319   4.483  11.566  13.840 -0.1916 -0.0944 -0.0487
 7516S        S14320   6.313   2.578  25.698 -0.4095 -0.0044 -0.3131
 7517S        S14321   6.913  10.290  23.171  0.1433 -0.5088 -0.4491
 7518S        S14322   8.799   8.365  29.397 -0.5036 -0.4174 -0.5686
 7519S        S14323   7.344   6.227  15.958  0.2608  0.2307  0.3812
 7520S        S14324   6.655   3.145  25.639  0.5146 -0.3129 -0.0167
 7521S        S14325  11.218   1.969  32.314 -0.4178 -0.0572  0.1331
 7522S        S14326   9.962   5.806  25.259  0.0529  0.0915  0.3926
 7523S        S14327   9.092   8.434  13.214  0.2535 -0.2921  0.2641
 7524S        S14328   4.644   6.327  25.395  0.2182 -0.0971  0.4050
 7525S        S14329   9.131   6.351  12.543  0.4565 -0.1374 -0.1037
 7526S        S14330   8.574   1.995  11.246  0.1751 -0.0618  0.0705
 7527S        S14331   9.186   4.680  19.123  0.2409 -0.0315  0.0414
 7528S        S14332   2.777   8.956  18.699  0.2905  0.3797 -0.0238
 7529S        S14333   8.015   3.566  16.734  0.2046 -0.0425 -0.1852
 7530S        S14334   8.987   4.663  20.415  0.2182 -0.1162 -0.1729
 7531S        S14335   0.678   8.039  16.052  0.1765  0.9260  0.0912
 7532S        S14336   8.378   4.549  12.085 -0.3702  0.9149 -0.0519
 7533S        S14337   4.452   4.744  20.970  0.6272  0.3426  0.3148
 7534S        S14338   9.883   8.665  28.892  0.5020 -0.5298 -0.1168
 7535S        S14339   7.496   3.205  25.625  0.2646  0.0716 -0.2377
 7536S        S14340   8.242   9.435  33.815 -0.5603  0.5466 -0.3440
 7537S        S14341   7.272   5.819  14.495 -0.1949  0.1118 -0.2258
 7538S        S14342   2.169  11.059  19.463 -0.3011  0.0832  0.1442
 7539S        S14343   2.775   4.943  16.398  0.1014  0.2362  0.0207
 7540S        S14344   8.435   7.179  28.664  0.0111 -0.4682 -0.4493
 7541S        S14345   3.654   7.235  18.676  0.2849  0.5068 -0.1843
 7542S        S14346  10.240   3.655  27.312  0.5519  0.2423 -0.2107
 7543S        S14347   7.674   1.526  25.336 -0.4214  0.1080  0.0351
 7544S        S14348   3.209   9.121  20.585  0.1251 -0.5807 -0.1955
 7545S        S14349   9.785   6.096  13.150  0.3837  0.3561 -0.0700
 7546S        S14350  11.040  11.568  24.334 -0.7337  0.2088 -0.4578
 7547S        S14351   5.179  11.767  15.984  0.3933  0.3711 -0.2083
 7548S        S14352   3.111   6.584  22.814 -0.3382 -0.1425 -0.1339
 7549S        S14353   4.596   7.739  26.196  0.0783 -0.0830 -0.3167
 7550S        S14354  11.268  12.299  25.149  0.1745 -0.3351 -0.3243
 7551S        S14355   7.807   7.821  23.730 -0.3045  0.2822 -0.2012
 7552S        S14356  10.547  11.738  29.253 -0.1205  0.1164 -0.3565
 7553S        S14357   5.310   8.438  20.520  0.6101 -0.3114  0.1212
 7554S        S14358   2.412   9.833  39.224  0.2620  0.1403  0.5015
 7555S        S14359   9.939   6.190  19.202 -0.1277  0.3488 -0.3050
 7556S        S14360   5.674   4.296  20.757  0.2890  0.4788  0.4446
 7557S        S14361   8.195   4.931  27.550 -0.0987  0.1051 -0.1212
 7558S        S14362  11.158   3.391  28.579 -0.1628  0.3524 -0.2114
 7559S        S14363   6.042   1.162  13.269 -0.0756 -0.5162  0.4741
 7560S        S14364   6.879   4.087  11.733 -0.1788  0.0323 -0.3171
 7561S        S14365   7.347   7.621  30.249 -0.6149 -0.5117  0.3962
 7562S        S14366   1.833   7.705  26.489  0.0993 -0.5918 -0.0357
 7563S        S14367   3.104   4.607  29.280 -0.4521 -0.1245 -0.5767
 7564S        S14368   8.892   5.657  20.262 -0.2967 -0.1205  0.3782
 7565S        S14369  10.871   5.194  22.668  0.3359  0.0353 -0.1356
 7566S        S14370   5.486   9.439  27.394 -0.4839  0.5051  0.0510
 7567S        S14371   4.115  10.691  26.474  0.5387 -0.0257  0.0578
 7568S        S14372   5.075   7.984   0.451  0.1763 -0.2988  0.2031
 7569S        S14373   2.251  12.308  16.327 -0.5761  0.5365 -0.0748
 7570S        S14374  11.169   7.654  40.521  0.2247 -0.0180  0.2451
 7571S        S14375   0.933   4.637  24.606  0.0578  0.1044  0.0461
 7572S        S14376  11.497   2.210  13.727 -0.0343  0.0223  0.1143
 7573S        S14377   4.185   9.335  18.876  0.0128  0.6187  0.1867
 7574S        S14378   3.149   6.501  16.238  0.0732  0.3886 -0.3544
 7575S        S14379   6.981   7.506  20.189 -0.1432  0.0369 -0.2554
 7576S        S14380   5.892   1.279  25.826  0.1740  0.1683  0.2870
 7577S        S14381   1.750   8.121  32.363 -0.0986  0.0166  0.5367
 7578S        S14382   4.713  11.233  18.209  0.2282 -0.0774 -0.1165
 7579S        S14383   2.024   3.430  23.207 -0.0749 -0.4272 -0.1461
 7580S        S14384  11.547  10.687  26.974  0.1242 -0.2118 -0.4087
 7581S        S14385   7.592   6.972  21.559 -0.1453 -0.0812  0.1621
 7582S        S14386   7.033   0.494  24.698 -0.3411  0.1498  0.5158
 7583S        S14387   7.745   1.776  12.816  0.1934 -0.1600  0.6084
 7584S        S14388   8.749   6.533  12.851  0.4104 -0.1413  0.1673
 7585S        S14389  10.951   6.717  11.366 -0.4676 -0.1100 -0.0481
 7586S        S14390   3.609   7.998  11.260  0.2905 -0.2924 -0.1520
 7587S        S14391  10.549   5.265  31.465 -0.1439  0.0457 -0.3102
 7588S        S14392   2.946  10.624  11.666  0.3006  0.0881 -0.3862
 7589S        S14393   0.722   0.194  14.513 -0.2777 -0.5325 -0.0196
 7590S        S14394   2.841   0.535  12.030 -0.3601  0.2313 -0.4522
 7591S        S14395   4.483   7.221  24.072 -0.3630  0.1138 -0.4463
 7592S        S14396   7.623  11.748  12.985 -0.2068 -0.0106 -0.1087
 7593S        S14397   7.702   8.510  22.703 -0.2622 -0.5629  0.2619
 7594S        S14398   7.469   6.914  24.236 -0.0304  0.2554  0.6396
 7595S        S14399   7.024   5.276  15.016  0.3935 -0.1062 -0.0530
 7596S        S14400   0.098  11.322  19.881 -0.0211  0.4749  0.3999
 7597S        S14401   0.627   7.320  14.640 -0.0690  0.1350  0.1775
 7598S        S14402   5.684   1.677  23.243 -0.1499 -0.2190  0.2490
 7599S        S14403   3.548   4.971  13.812  0.0527  0.4202  0.0995
 7600S        S14404   7.080   6.559  15.693 -0.2536  0.0276  0.0435
 7601S        S14405   2.837   9.676  13.707 -0.4812 -0.1561  0.3150
 7602S        S14406   7.411  11.761  12.076 -0.1693 -0.0888 -0.0832
 7603S        S14407  11.815   8.475  27.655  0.0049 -0.4941 -0.3837
 7604S        S14408   1.507   9.338  27.038 -0.1572  0.1557  0.3986
 7605S        S14409   5.981  12.130  21.183 -0.0320  0.2434  0.1905
 7606S        S14410  11.747   0.022  24.938  0.2099 -0.5576  0.7238
 7607S        S14411   1.283   4.471  24.193  0.3319  0.1785 -0.0498
 7608S        S14412   4.672   5.745  17.292 -0.3258  0.0673  0.3283
 7609S        S14413   5.357   9.302  15.779 -0.0565  0.2548  0.2929
 7610S        S14414   6.995   6.618  20.381  0.2406 -0.5383  0.3979
 7611S        S14415   3.871   8.233  29.162  0.0226  0.2767 -0.2753
 7612S        S14416   6.432  10.910  17.667 -0.0316  0.4647 -0.0536
 7613S        S14417   9.046   9.064  12.027 -0.5886  0.0114 -0.2121
 7614S        S14418   6.531   4.272  15.939 -0.1015  0.2946  0.4999
 7615S        S14419  10.997   2.209  29.151  0.3889  0.1374  0.2680
 7616S        S14420   3.584  10.206  18.783  0.3022  0.5922  0.0320
 7617S        S14421   9.923   8.865  20.594 -0.1153 -0.1885 -0.6092
 7618S        S14422   2.163   1.441  19.982  0.3127  0.0685  0.3579
 7619S        S14423   8.918  11.246  12.245  0.1382 -0.1648 -0.0752
 7620S        S14424  10.601  11.028  14.369  0.0897 -0.1002  0.0884
 7621S        S14425   4.468   2.719  26.835 -0.0196  0.2531 -0.1592
 7622S        S14426   3.194  10.669  23.492  0.0603 -0.3178 -0.1572
 7623S        S14427   3.967  12.084  26.319  0.3435 -0.3799  0.0494
 7624S        S14428   3.793   5.176  18.027  0.3717  0.3979 -0.6502
 7625S        S14429   9.177   1.838  16.202 -0.1804  0.6570 -0.1089
 7626S        S14430   4.123   4.307  18.278  0.0085  0.0981  0.2070
 7627S        S14431   8.727  10.144  20.487 -0.1173  0.2083  0.2107
 7628S        S14432   2.129   9.159  16.945  0.3248  0.3592  0.3106
 7629S        S14433  10.270   6.289  22.114  0.5373 -0.1751 -0.0281
 7630S        S14434   9.341   4.974   9.184 -0.5056  0.0125  0.0603
 7631S        S14435   9.573   0.886  12.067  0.3246  0.3125  0.0911
 7632S        S14436  10.094   8.768  31.490  0.3396 -0.0787 -0.0097
 7633S        S14437   7.696   2.193  32.233  0.2855  0.1048  0.2437
 7634S        S14438   9.256   3.779  12.317  0.0847 -0.5937 -0.1323
 7635S        S14439   3.322   8.508  15.497  0.2420  0.4844 -0.2278
 7636S        S14440   6.562   0.429  24.287  0.3445  0.1036  0.2352
 7637S        S14441   0.648   9.579  16.183 -0.1878 -0.0085  0.4115
 7638S        S14442   9.085   1.107  28.051  0.0086 -0.3669 -0.8427
 7639S        S14443   0.003   1.510  12.118  0.1813  0.4119 -0.4203
 7640S        S14444   8.450   3.728  14.694 -0.0225 -0.6812 -0.2976
 7641S        S14445   2.364   7.803  31.692  0.0447 -0.4123  0.3102
 7642S        S14446   7.234  10.281  16.448 -0.1923 -0.3225 -0.3652
 7643S        S14447   4.508   6.976  19.395  0.3906 -0.0512 -0.2628
 7644S        S14448   0.617   6.174  17.667  0.2143 -0.0317  0.0245
 7645S        S14449   2.572   1.112  12.471 -0.0394  0.4873  0.3579
 7646S        S14450   2.962   1.898  13.837 -0.2680 -0.1302  0.2099
 7647S        S14451   5.267   1.796  16.072 -0.1531 -0.0386  0.0606
 7648S        S14452   8.078   6.902  16.133 -0.3125  0.0002  0.8240
 7649S        S14453   4.642   0.685  33.468 -0.1415  0.8925  0.1742
 7650S        S14454   8.668   5.919  14.188 -0.2925 -0.0943 -0.3047
 7651S        S14455   0.017   9.524  26.106  0.2873 -0.0377  0.2168
 7652S        S14456   1.834  11.685  16.443  0.0797  0.2427  0.5388
 7653S        S14457   3.125   8.293  16.794  0.7677 -0.2313  0.2816
 7654S        S14458   7.865   1.492  30.236 -0.2926 -0.7583 -0.4186
 7655S        S14459   7.163   4.104  26.233  0.0999 -0.3341  0.3638
 7656S        S14460   8.596   0.336  26.453 -0.1476 -0.6535 -0.4378
 7657S        S14461   1.194   2.427  27.581  0.1407 -0.3752 -0.4684
 7658S        S14462   9.872   2.100  13.441 -0.4970 -0.3689 -0.4768
 7659S        S14463  11.030  10.832  22.354  0.0506  0.0377 -0.0242
 7660S        S14464   7.061   4.115  43.333  0.0852 -0.2100 -0.0068
 7661S        S14465   0.169  11.099  23.198 -0.3014 -0.7986 -0.3115
 7662S        S14466   3.422   5.498  16.943 -0.1767  0.2682  0.2632
 7663S        S14467   9.635   2.896  21.590  0.0608  0.0916  0.2353
 7664S        S14468   4.167  10.169  24.473 -0.2804 -0.3178  0.6709
 7665S        S14469   2.876   8.293  12.129  0.0295 -0.0504 -0.2666
 7666S        S14470  10.074   0.760  12.573 -0.4197  0.1761  0.2476
 7667S        S14471   2.018   7.745  23.775 -0.0374 -0.0398  0.5396
 7668S        S14472   7.703   2.633  26.165 -0.2207 -0.1906  0.2801
 7669S        S14473  10.598   5.101  19.866 -0.1323 -0.3261 -0.0919
 7670S        S14474   2.808   5.459  16.425 -0.2557  0.2301  0.0239
 7671S        S14475  10.521   4.107  30.823 -0.5205 -0.1814  0.0458
 7672S        S14476  11.318   4.073  27.684 -0.2461  0.1430 -0.4641
 7673S        S14477  10.411   3.059  28.350 -0.3725  0.6107  0.4795
 7674S        S14478   0.089   9.385  31.277  0.1009  0.3685 -0.8902
 7675S        S14479   8.099   9.929  14.003 -0.2563  0.3090  0.2366
 7676S        S14480   2.897   6.875  17.436 -0.0890  0.6325  0.0705
 7677S        S14481   6.304  12.154  28.587  0.1568  0.3783  0.5939
 7678S        S14482   9.535   0.716  17.196 -0.2259  0.1641  0.1338
 7679S        S14483   8.415   8.962  14.292  0.2600 -0.0553 -0.2409
 7680S        S14484  10.350   9.845  14.636 -0.2785  0.5742  0.4221
 7681S        S14485   2.625   2.446  12.206 -0.1604 -0.0828 -0.0989
 7682S        S14486   4.702   4.689  22.762  0.0490 -0.1348 -0.3037
 7683S        S14487   3.953  11.926  17.265 -0.0224 -0.3742 -0.2819
 7684S        S14488   8.383   1.869  25.822 -0.0788 -0.3142  0.2534
 7685S        S14489   1.750   0.819  21.198  0.1271 -0.4445 -0.1085
 7686S        S14490   9.743   4.040  22.013 -0.3043 -0.4335  0.9704
 7687S        S14491   9.517  10.448  15.218 -0.0363 -0.4129  0.0028
 7688S        S14492   4.647  12.084  23.535  0.8079  0.2628 -0.0980
 7689S        S14493   0.356   0.299  15.799 -0.1234  0.9371  0.0721
 7690S        S14494   1.143   0.749  27.345 -0.1344 -0.2343  0.2503
 7691S        S14495   1.989   8.445  16.189  0.1230  0.5699  0.0240
 7692S        S14496   3.749   2.637  20.814  0.0982  0.1515  0.0478
 7693S        S14497  11.329   3.501  16.698 -0.2776 -0.0173 -0.0400
 7694S        S14498   8.831  10.294  21.320  0.1628  0.0314 -0.1519
 7695S        S14499   6.259   7.426  29.695 -0.2712 -0.0233  0.1695
 7696S        S14500   1.380   2.198  24.406 -0.2841  0.1605  0.3196
 7697S        S14501   4.706   2.776  20.188  0.1278  0.4015  0.0622
 7698S        S14502   8.836   5.978  12.845  0.3859 -0.3163  0.0593
 7699S        S14503   8.992   7.553  11.903 -0.1312  0.4671 -0.2742
 7700S        S14504   9.817  11.517  20.318 -0.1195  0.2490 -0.4274
 7701S        S14505   6.541   1.365  18.689 -0.5411  0.3209  0.6372
 7702S        S14506   8.237   2.808   5.418 -0.1885  0.5862 -0.5677
 7703S        S14507   4.146   5.763  19.072  0.0783  0.3195 -0.5046
 7704S        S14508   9.242   4.636  28.207  0.0823  0.6449  0.4134
 7705S        S14509   5.803   1.620  26.697  0.0110 -0.4082 -0.5282
 7706S        S14510  10.705   3.289  22.933 -0.0518  0.7846  0.5064
 7707S        S14511   1.094   5.599  11.961 -0.1741 -0.1258 -0.4848
 7708S        S14512  11.019   8.392  28.562  0.1765  0.0485 -0.3117
 7709S        S14513   0.281   0.102  12.368 -0.1640 -0.4920  0.4915
 7710S        S14514  11.466   9.536  24.959  0.2743 -0.6106 -0.0233
 7711S        S14515   0.071   9.185  23.429 -0.5057  0.2477  0.3711
 7712S        S14516   8.528   0.538  28.682  0.5528  0.1267  0.0363
 7713S        S14517   2.692   1.657  25.104  0.2497 -0.0997 -0.0881
 7714S        S14518  11.993   9.097  21.778 -0.7128 -0.2732 -0.1026
 7715S        S14519   3.606   7.845  20.307 -0.2052  0.0995  0.0775
 7716S        S14520   4.619   8.501  31.341 -0.3417 -0.4723  0.8395
 7717S        S14521  10.684   1.627  20.606  0.0857 -0.1705 -0.2456
 7718S        S14522   3.712   9.177  16.963 -0.5060  0.0044  0.0228
 7719S        S14523   2.383   7.038  14.340  0.1936 -0.0696 -0.4091
 7720S        S14524   3.484   1.718  16.051 -0.0412 -0.4152  0.0031
 7721S        S14525   2.555   3.243  23.485 -0.1621 -0.4728 -0.3765
 7722S        S14526   6.022  10.476  26.926  0.0167  0.3088  0.0325
 7723S        S14527  11.785   1.634  21.290 -0.5222  0.1065 -0.4659
 7724S        S14528  10.289  12.026  28.895  0.1567  0.4740  0.3314
 7725S        S14529   5.553  11.753  25.370  0.2236 -0.4085 -0.0545
 7726S        S14530  10.872   1.902  16.111  0.3332  0.5750 -0.1825
 7727S        S14531   1.119  12.113  35.567 -0.5457  0.2719  0.1618
 7728S        S14532   9.188   5.485  18.917 -0.3914  0.2276 -0.2676
 7729S        S14533   0.991   5.650  31.788  0.1876  0.3516  0.1150
 7730S        S14534   6.218   8.380  49.434  0.1901  0.4109  0.6841
 7731S        S14535   4.382  11.717  25.595  0.0778  0.5269 -0.4920
 7732S        S14536   5.364   0.556  13.668 -0.2795  0.0355 -0.1456
 7733S        S14537   3.790   3.069  16.484  0.1525 -0.0359  0.4120
 7734S        S14538  11.582   5.853  14.781 -0.2004  0.5261 -0.0565
 7735S        S14539   2.582   8.580  13.450 -0.1556 -0.0071  0.4815
 7736S        S14540   6.590   5.431  30.462 -0.8601  0.4908 -0.7742
 7737S        S14541   9.874   1.442  32.532 -0.2857  0.2995 -0.0444
 7738S        S14542   6.334   7.249  22.777  0.2521  0.1715  0.3654
 7739S        S14543   0.024   1.424  25.239  0.3497  0.2927  0.0077
 7740S        S14544  12.169   9.139  17.309  0.1874  0.1774  0.0155
 7741S        S14545   5.551   2.923  12.303  0.2732  0.0320  0.5518
 7742S        S14546   2.362   9.256  19.701  0.3371  0.5986 -0.2153
 7743S        S14547   6.460   9.981  12.748 -0.0545  0.0310 -0.4208
 7744S        S14548   8.845   2.351  31.995  0.1413 -0.2583  0.0967
 7745S        S14549   8.454   5.794  20.577  0.1174 -0.2556  0.2549
 7746S        S14550  10.551   7.506  23.539  0.0907  0.0606  0.2909
 7747S        S14551  11.483   3.742  27.284  0.0648  0.4245  0.0310
 7748S        S14552   7.566   4.942  19.487 -0.3576 -0.0550  0.4133
 7749S        S14553   2.319   5.664  12.092  0.0296  0.1738 -0.0468
 7750S        S14554   8.722   1.408  14.838  0.1784 -0.0915  0.0709
 7751S        S14555   6.731   2.059  16.523 -0.5250 -0.4871 -0.2905
 7752S        S14556   5.663   9.669  16.582 -0.1274 -0.6569  0.0645
 7753S        S14557   9.768  11.274  26.809 -0.0651  0.0138 -0.2471
 7754S        S14558   8.265   9.509  14.242 -0.0828 -0.3935 -0.0895
 7755S        S14559  11.613  10.117  14.935  0.0812 -0.0429 -0.1296
 7756S        S14560   1.974   4.486  19.574 -0.2670 -0.2596 -0.0436
 7757S        S14561  11.392   8.034  30.138 -0.1645  0.2712 -0.2334
 7758S        S14562   9.029  11.875  25.846  0.5907  0.3059  0.4598
 7759S        S14563   9.452   2.719  29.853 -0.1880 -0.2446 -0.4213
 7760S        S14564   5.416   2.546  23.911 -0.5264 -0.5716 -0.4908
 7761S        S14565   3.637   7.929  17.529 -0.0184 -0.0668  0.2525
 7762S        S14566   9.509   9.928  15.292  0.2593  0.3970  0.1041
 7763S        S14567   6.188   2.315  10.301  0.5911  0.0195  0.3033
 7764S        S14568   6.592   4.388  15.364  0.1035 -0.5138 -0.1416
 7765S        S14569   3.690   1.874  15.584  0.0326  0.6996  0.4274
 7766S        S14570   8.456  11.445  12.099 -0.3556  0.4477  0.3721
 7767S        S14571   8.078   4.222  16.294  0.5279  0.5774 -0.1277
 7768S        S14572  11.872   8.865  14.073  0.4640 -0.1461  0.0569
 7769S        S14573   5.874   3.193  27.113  0.0582 -0.4394  0.0947
 7770S        S14574   1.634  10.225  14.737  0.0994 -0.0756 -0.1513
 7771S        S14575   0.687   9.503  25.428 -0.1280 -0.2045  0.1316
 7772S        S14576   5.125   6.081  30.350  0.3826 -1.1833 -0.7988
 7773S        S14577  12.151   7.817  25.503 -0.2378  0.2660 -0.2970
 7774S        S14578   6.772   5.579  27.459 -0.2741 -0.6471  0.3846
 7775S        S14579  10.585   5.651  14.285  0.2348 -0.2554 -0.1997
 7776S        S14580   6.469   6.841  26.251  0.3138 -0.2030 -0.2329
 7777S        S14581   8.718   5.197  29.529  0.0206 -0.0622 -0.3217
 7778S        S14582   1.253   3.902  27.003  0.4557 -0.2326  0.2647
 7779S        S14583   3.738   6.179  20.530  0.0307  0.3787  0.4022
 7780S        S14584   9.608   5.874  29.290 -0.3732  0.1691 -0.3693
 7781S        S14585   1.603   8.752  24.085  0.2736 -0.0294  0.4572
 7782S        S14586   3.866   9.042  35.328  0.1750  0.0023  0.8014
 7783S        S14587   0.291   1.871  29.034 -0.1057  0.3711 -0.2984
 7784S        S14588   7.832   1.278   9.994  0.5424  0.1577  0.2618
 7785S        S14589   9.584   3.733  20.429  0.0939  0.2635  0.0478
 7786S        S14590   0.496   3.527  26.814  0.1799  0.3848 -0.1039
 7787S        S14591   4.191   0.517  14.120  0.1679 -0.1959  0.1458
 7788S        S14592   1.532   1.074  12.150  0.3826 -0.4125 -0.3587
 7789S        S14593   3.329   1.460  21.382 -0.2339  0.1540  0.3829
 7790S        S14594  12.329   6.985  19.698  0.1507 -0.4211  0.3317
 7791S        S14595   8.206   5.103  29.303 -0.0313  0.2778  0.3473
 7792S        S14596   2.218  10.091  27.233  0.2832 -0.0690  0.3758
 7793S        S14597   0.537   9.472  18.805 -0.4558  0.1525 -0.2073
 7794S        S14598   1.158  10.323  14.977 -0.0024  0.6260 -0.1577
 7795S        S14599   6.646   2.977  16.112 -0.1343  0.0320  0.0587
 7796S        S14600   3.183   2.530  21.422 -0.3467  0.2610 -0.2324
 7797S        S14601   7.530   3.389  15.802 -0.0744  0.0569 -0.1986
 7798S        S14602   9.873   1.080  18.025  0.0397 -0.2111  0.3447
 7799S        S14603   4.989   7.450  22.783  0.2540  0.3527 -0.1372
 7800S        S14604   8.941   6.033   3.659  0.1132  0.2800  0.2671
 7801S        S14605   0.231   5.603  14.695 -0.4207  0.4883 -0.0272
 7802S        S14606  10.394   0.313  14.757  0.1326 -0.5209 -0.2437
 7803S        S14607   7.775   8.767  21.856 -0.2103  0.0842 -0.2469
 7804S        S14608   1.237   8.442  11.666 -0.0002 -0.1259 -0.0480
 7805S        S14609   5.250   4.766  13.719  0.1351  0.1254 -0.3284
 7806S        S14610   1.296   4.475  29.867 -0.0700 -0.4031  0.3327
 7807S        S14611  11.017   7.014  19.167 -0.1299 -0.3477 -0.3942
 7808S        S14612   6.653   3.732  14.670 -0.2506  0.0621 -0.1746
 7809S        S14613  11.415  12.294  20.385 -0.6716 -0.1156  0.1564
 7810S        S14614   7.413   0.110  24.483  0.3569 -0.0118 -0.5505
 7811S        S14615   5.193   1.884  27.538 -0.1212 -0.3255 -0.1052
 7812S        S14616   3.737   5.616  12.394  0.1575  0.2229  0.0109
 7813S        S14617   9.884   3.666  25.349 -0.5594  0.2289  0.0782
 7814S        S14618  11.320   6.605  30.343 -0.2658  0.0593  0.7479
 7815S        S14619  11.665   9.816  16.754 -0.5942  0.3038  0.6270
 7816S        S14620  11.137   4.649  25.689 -0.1585 -0.0915 -0.1495
 7817S        S14621   5.692  11.432  16.046  0.3431 -0.1976 -0.1433
 7818S        S14622   0.458  10.243  11.465  0.2909 -0.0133 -0.0221
 7819S        S14623  11.291   4.197  13.375 -0.1592  0.2048 -0.0694
 7820S        S14624  11.825   3.812  20.464 -0.1442 -0.0023 -0.5760
 7821S        S14625   1.458   8.430  18.074  0.0059  0.1499  0.5387
 7822S        S14626   1.920   1.471  23.788  0.5651  0.1760  0.0627
 7823S        S14627  11.855   2.983  27.716  0.5067 -0.7447 -0.0026
 7824S        S14628   9.979   5.317  17.471  0.0291  0.4914 -0.4732
 7825S        S14629   7.639   8.198  13.966  0.0273 -0.2134  0.1143
 7826S        S14630   4.062   3.520  32.873  0.3697 -0.5074  0.7851
 7827S        S14631  11.103   3.422  32.113  0.3135 -0.4885  0.0129
 7828S        S14632   8.641   7.002  27.552 -0.4074 -0.2881 -0.0315
 7829S        S14633   6.848  11.087  24.575 -0.2606 -0.1618  0.4060
 7830S        S14634   7.881   5.102  26.631 -0.3475  0.1515 -0.1891
 7831S        S14635   0.249  11.334  22.311 -0.3124  0.3824  0.2301
 7832S        S14636   4.767   7.349  23.678 -0.4288  0.0931  0.3471
 7833S        S14637   9.988   0.648  22.134  0.4416  0.3570  0.7127
 7834S        S14638  10.995   7.623  14.840  0.1516 -0.7369 -0.1948
 7835S        S14639  11.185  12.296  26.530 -0.0299 -0.7823  0.2063
 7836S        S14640   4.293   9.924  19.733 -0.1271 -0.0348 -0.1111
 7837S        S14641   8.502   4.564  22.500  0.4662 -0.3656 -0.5909
 7838S        S14642   8.146  11.564  26.413  0.0926  0.1379 -0.0327
 7839S        S14643   1.847   2.741  14.793  0.0752 -0.0218  0.1762
 7840S        S14644   1.592   9.169  29.997 -0.3466 -0.1418 -0.1675
 7841S        S14645   0.650  11.470  26.927 -0.5615 -0.0125 -0.3515
 7842S        S14646  11.982   6.308  23.253  0.2504 -0.2300 -0.0105
 7843S        S14647   6.920   6.702  23.148  0.2592 -0.1014  0.4974
 7844S        S14648   5.492  10.169  15.001  0.1656 -0.3244  0.0501
 7845S        S14649   6.028   6.027  15.508 -0.3091  0.4949  0.2926
 7846S        S14650   2.174   7.958  29.843  0.0279 -0.1514 -1.1407
 7847S        S14651  11.776   8.486  13.594 -0.2285  0.2901 -0.1934
 7848S        S14652  10.420   4.238  20.356 -0.5729  0.6784 -0.3509
 7849S        S14653  11.111  11.514  18.493  0.4370 -0.0917  0.3697
 7850S        S14654   6.546   5.990  21.706 -0.0128  0.4656  0.3570
 7851S        S14655   8.887   9.026  22.254  0.4660 -0.0694 -0.3403
 7852S        S14656   8.077   3.439  14.564 -0.4497 -0.1520  0.0606
 7853S        S14657   9.626   5.616  13.986 -0.5286 -0.0356 -0.2366
 7854S        S14658   5.089   7.591  23.336  0.0451 -0.5958 -0.0678
 7855S        S14659   5.953   0.398  20.341  0.1060  0.1685 -0.0907
 7856S        S14660  11.268   3.054  18.835  0.2889 -0.0480  0.3646
 7857S        S14661   6.354  12.316  19.778 -0.1196 -0.5637 -0.0251
 7858S        S14662  11.041   5.319  19.720 -0.1445 -0.4028  0.5025
 7859S        S14663   6.030  11.799  16.843  0.3673 -0.2140  0.0427
 7860S        S14664   6.603   0.328  30.303 -0.4885 -0.5343 -0.5002
 7861S        S14665   3.698   0.512   5.760 -0.0825 -0.3983  0.4719
 7862S        S14666  10.516   8.546  31.004  0.6445  0.1694 -0.2046
 7863S        S14667   8.585   2.691  30.176 -0.0783  0.6133  0.3230
 7864S        S14668  12.291   9.608  12.940 -0.0409  0.0284  0.3755
 7865S        S14669  11.318   8.831  29.947  0.0361  0.2153 -0.1126
 7866S        S14670   0.994   7.553  14.371 -0.0386 -0.0405 -0.2312
 7867S        S14671   0.507   0.525  32.160 -0.7710  0.6398  0.1827
 7868S        S14672   8.396   4.691  30.331 -0.7859 -0.1057 -0.5654
 7869S        S14673   4.556   2.336  28.393  0.1604 -0.2308 -0.3279
 7870S        S14674   6.579   1.595  31.165 -0.6978  0.1785  0.0516
 7871S        S14675   5.904   2.334  21.848 -0.0245 -0.2378  0.5788
 7872S        S14676   8.645   4.199  17.618 -0.5339  0.4854  0.0056
 7873S        S14677   9.609   5.531  25.119  0.2852 -0.3341  0.0804
 7874S        S14678   1.999  10.818  25.302  0.4761 -0.5271 -0.6818
 7875S        S14679   9.861   3.558  32.038  0.0956  0.2858 -0.0281
 7876S        S14680   7.491   7.638  21.111  0.2128  0.1660  0.2212
 7877S        S14681   2.638   3.261  16.271  0.0381 -0.4972  0.3665
 7878S        S14682   4.667   3.853  23.552  0.0266 -0.2854  0.4468
 7879S        S14683  12.341  11.582  25.303  0.5144  0.0227 -0.3432
 7880S        S14684  12.157   1.491  12.593 -0.4402 -0.1066 -0.0047
 7881S        S14685  10.319   6.012  23.974 -0.2064  0.3012 -0.1328
 7882S        S14686   3.424  11.756   2.873  0.0315 -0.0457  0.2091
 7883S        S14687   5.123   6.240  22.365 -0.1233  0.1030  0.1143
 7884S        S14688   0.863   7.427  16.036  0.3173  0.0752 -0.2254
 7885S        S14689   5.839   2.778  17.830  0.2990 -0.0512 -0.1424
 7886S        S14690   7.753   2.743  27.929 -0.0807  0.2799 -0.0035
 7887S        S14691   5.645  12.039  16.014  0.2202  0.1201  0.5157
 7888S        S14692  11.815  12.349  25.603 -0.0190 -0.2658  0.3960
 7889S        S14693   5.284   9.657  23.947  0.1957  0.2962  0.5585
 7890S        S14694   6.052   2.426  22.766  0.4305  0.1322  0.2723
 7891S        S14695   2.907   8.661  15.826  0.2175 -0.0934 -0.1083
 7892S        S14696   4.060   5.539  17.188  0.4021  0.1382  0.1574
 7893S        S14697   4.864   0.194  30.544 -0.5882  0.8651 -0.2669
 7894S        S14698  10.642   8.895  11.515 -0.4894 -0.2602  0.0111
 7895S        S14699   6.347   6.122  25.505 -0.6997  0.6617 -0.6580
 7896S        S14700   8.759   5.555  28.954 -0.1443 -0.5575  0.4832
 7897S        S14701   2.887   3.702  26.082  0.4625 -0.5686 -0.6525
 7898S        S14702   4.864   4.123  24.686 -0.1049  0.2089  0.2812
 7899S        S14703   9.383   1.273  19.433  0.0016 -0.2465  0.0428
 7900S        S14704   8.615  11.512  21.496 -0.1032  0.0161 -0.1182
 7901S        S14705  10.071   9.107  13.571 -0.2451  0.4648 -0.0964
 7902S        S14706   2.043   0.194  12.221  0.1534 -0.5207 -0.1245
 7903S        S14707   6.346   9.869  15.255 -0.2291  0.1928 -0.1704
 7904S        S14708   4.254   2.828  19.979  0.2539 -0.3761  0.1121
 7905S        S14709   9.453   4.163  24.439 -0.4578  0.2694  0.3592
 7906S        S14710  10.478   5.628  23.537  0.5247 -0.6846  0.1930
 7907S        S14711   0.399   9.861  14.673 -0.1528  0.0197  0.0906
 7908S        S14712   3.792   7.122   5.638 -0.4796  0.2349 -0.0102
 7909S        S14713   0.317   5.591  23.637 -0.0041 -0.2770  0.0890
 7910S        S14714   6.002  10.522  15.297  0.3679 -0.0425 -0.3874
 7911S        S14715   8.257   6.641  21.806  0.3607  0.3311 -0.0261
 7912S        S14716  11.542   8.879  26.821  0.0332  0.1353  0.2996
 7913S        S14717   7.158   8.519  15.524  0.1126 -0.0840 -0.6449
 7914S        S14718   6.389   7.267  23.748 -0.6264 -0.0436  0.4638
 7915S        S14719   3.754   3.723  13.903 -0.2745  0.7281 -0.1717
 7916S        S14720   1.441   7.699  26.104  0.3263 -0.3300  0.5541
 7917S        S14721   6.479  10.930  21.219 -0.0116 -0.3081  0.1743
 7918S        S14722  10.594   3.592  30.110  0.2711  0.1522 -0.0441
 7919S        S14723  10.567   5.652  28.742  0.3610  0.3725  0.2483
 7920S        S14724   3.051   6.345  12.322 -0.1285  0.0786  0.0326
 7921S        S14725   9.517   0.429  31.317 -0.3426  0.1458  0.8445
 7922S        S14726   8.725   3.332  12.669  0.2530  0.0545 -0.2142
 7923S        S14727   4.029   0.504  25.771 -0.0940  0.0118  0.0167
 7924S        S14728   6.775   5.072  23.180 -0.5919 -0.2677 -0.4728
 7925S        S14729   8.129   7.271  21.833 -0.3207 -0.4844  0.2488
 7926S        S14730   2.417  10.371  28.922  0.6785  0.4278 -0.5138
 7927S        S14731   5.673   1.936  13.922 -0.3127  0.0068  0.0838
 7928S        S14732   3.463   0.555  18.464  0.3088 -0.6261  0.2080
 7929S        S14733  10.549   1.586  16.921 -0.1621 -0.2734  0.1394
 7930S        S14734  12.062   6.263  30.438  0.3147 -0.1637 -0.1815
 7931S        S14735  11.279   5.451  23.404 -0.0996  0.0791 -0.0678
 7932S        S14736  12.131   4.637  15.701  0.4357  0.7868 -0.1388
 7933S        S14737   1.400   6.177  24.183 -0.4148  0.6500 -0.3926
 7934S        S14738   9.745   2.745  12.142 -0.5105 -0.1350  0.5099
 7935S        S14739   3.433  11.342  16.890 -0.1325 -0.6162 -0.1984
 7936S        S14740   4.566   3.062  15.314 -0.1914 -0.3858 -0.6252
 7937S        S14741   4.074   2.269  18.257 -0.3122 -0.5826 -0.0580
 7938S        S14742   8.112  11.421  16.910 -0.4205 -0.1329  0.0557
 7939S        S14743   4.679   1.342  25.236  0.1127 -0.2159  0.3699
 7940S        S14744  11.193   2.111  27.790  0.6933  0.2673 -0.2846
 7941S        S14745   8.432   3.817  24.719 -0.4612 -0.4826 -0.3057
 7942S        S14746   2.278   7.417  16.327  0.0871  0.1292 -0.0790
 7943S        S14747   8.306   2.577  19.690 -0.5850 -0.2024 -0.1801
 7944S        S14748   7.132   0.517  20.396  0.1052  0.0582 -0.1355
 7945S        S14749   8.584  12.043  21.658 -0.3342  0.2786  0.0013
 7946S        S14750   7.801   4.737  16.083 -0.2410 -0.3737  0.6378
 7947S        S14751   7.936   6.782  14.628  0.1255 -0.0260 -0.1410
 7948S        S14752   3.158   0.992  11.818  0.0642 -0.1615  0.0746
 7949S        S14753   9.088  12.197  15.976 -0.3294 -0.4753  0.0642
 7950S        S14754   7.312   6.564  15.069 -0.4858 -0.0528 -0.4000
 7951S        S14755   5.313   7.839  20.050  0.0245  0.2417  0.0605
 7952S        S14756   7.648   4.843  21.665  0.5272  0.1198  0.1489
 7953S        S14757  10.375   1.679  27.822 -0.3968  0.0260 -0.2235
 7954S        S14758   9.456   9.043  31.795 -0.7565 -0.6189  0.0879
 7955S        S14759   2.815   7.089  39.954  0.0087  0.0728  1.2645
 7956S        S14760   5.597  11.938  18.480  0.4182  0.3223  0.1650
 7957S        S14761   0.014   2.900  26.635  0.2184  0.2327 -0.1823
 7958S        S14762  10.711   4.788  25.354  0.0461 -0.2299 -0.2482
 7959S        S14763  10.672   9.359  18.767 -0.1734  0.0754 -0.2112
 7960S        S14764   0.869   3.902  29.042 -0.1660 -0.4472  0.3164
 7961S        S14765   1.667   4.834  18.199 -0.0522 -0.4001 -0.3114
 7962S        S14766   1.855   6.571  18.804  0.2699 -0.4761 -0.0440
 7963S        S14767   9.161   9.265  28.580 -0.0716 -0.2340 -0.0402
 7964S        S14768   2.121  10.804  24.559  0.0822 -0.3628  0.1554
 7965S        S14769   5.360   4.238  18.017  0.1606  0.4256  0.3422
 7966S        S14770   8.994   5.062  15.653 -0.0564 -0.0364 -0.0214
 7967S        S14771   0.174   1.887  24.998  0.2341  0.0040 -0.3426
 7968S        S14772   2.755   2.348  11.540  0.4426  0.2373  0.0083
 7969S        S14773   5.432   7.292  16.391  0.4645 -0.2374 -0.8468
 7970S        S14774   7.649   8.553  19.559 -0.0711  0.2849  0.3821
 7971S        S14775   0.985   8.072  30.153 -0.2135  0.4345 -0.6444
 7972S        S14776   9.776   0.169  24.484  0.1322  0.7106  0.8380
 7973S        S14777  11.562   7.475  11.369  0.0876  0.3522  0.1503
 7974S        S14778  11.749   3.236  23.882 -0.6846  0.0735  0.5610
 7975S        S14779   8.151   2.010  29.167 -0.0385  0.1799  0.0114
 7976S        S14780  10.354   9.681  23.936  0.0968  0.3706  0.0244
 7977S        S14781  12.332   3.590  23.115 -0.1960 -0.3687 -0.6864
 7978S        S14782   8.393   0.136  11.985  0.2835 -0.4268 -0.2594
 7979S        S14783   4.072   6.106  26.427  0.3431  0.0540 -0.3051
 7980S        S14784   5.868   3.347  21.671  0.0009 -0.0060 -0.0643
 7981S        S14785   6.133   9.618  12.521  0.5349  0.3924  0.0323
 7982S        S14786  11.471   0.888  31.315 -0.0347  0.2018 -0.2877
 7983S        S14787   8.592   6.598  26.105 -0.0966  0.2606 -1.4904
 7984S        S14788   5.822   6.311  21.910  0.0512 -0.5986 -0.0952
 7985S        S14789   0.785   3.397  26.328 -0.1400  0.1300 -1.1449
 7986S        S14790  10.153   1.655  20.198  0.2257 -0.0763  0.3120
 7987S        S14791   0.663   7.847  13.355  0.7648  0.3609 -0.1936
 7988S        S14792  11.049   7.306  36.268 -0.0834  0.2783 -0.0450
 7989S        S14793   1.350   4.423  23.068  0.1497  0.5398 -0.4594
 7990S        S14794   6.238   3.435  29.791  0.4041 -0.0772  0.6711
 7991S        S14795  11.653   7.015  24.456 -0.2424 -0.5008 -0.6845
 7992S        S14796   1.587   3.123  26.458 -0.0265 -0.2383  0.1006
 7993S        S14797  10.132   3.188  15.183  0.2955  0.0840  0.0662
 7994S        S14798   5.472   1.130  29.493 -0.1871 -0.2507  0.0375
 7995S        S14799   9.040   3.430  26.738  0.4398 -0.8096  0.3706
 7996S        S14800   4.568   8.260   0.268  0.1349  0.6177  0.1926
 7997S        S14801   3.402   1.060  26.298 -0.3585 -0.0115  0.1254
 7998S        S14802   7.677   9.470  29.670 -0.5637 -0.4010  0.6506
 7999S        S14803   4.701   2.531  29.606 -0.2745  0.4914 -0.1571
 8000S        S14804   0.201   5.810  24.546  0.3586 -0.3573  0.1126
 8001S        S14805   8.356   3.475  13.592  0.2199  0.1854  0.2306
 8002S        S14806  11.694  10.007  13.612  0.0640  0.0778 -0.0947
 8003S        S14807  11.531   5.035  22.515  0.2509  0.3138  0.0343
 8004S        S14808   5.467   3.661  13.879 -0.1023  0.4140 -0.3476
 8005S        S14809   0.944   6.419   2.959  0.0328  0.0804  0.1677
 8006S        S14810   8.733  12.305  24.537  0.2365 -0.6054 -0.2128
 8007S        S14811   2.391   7.244  19.808 -0.1914 -0.4147  0.0576
 8008S        S14812   5.875   5.480  17.347  0.1369 -0.0945  0.4226
 8009S        S14813   1.696  10.568  11.443  0.7979  0.3662 -0.1928
 8010S        S14814  11.919   8.754  17.861 -0.1035 -0.4627 -0.5199
 8011S        S14815  12.251  10.197  14.752  0.3164  0.0363 -0.4082
 8012S        S14816   5.940   8.385  20.575  0.3528  0.0483  0.1062
 8013S        S14817   3.769   9.495  14.952  0.5181 -0.2183  0.1383
 8014S        S14818   3.578   2.937  27.222  0.5742 -0.2180 -0.4160
 8015S        S14819  12.144  10.452  25.774 -0.3153 -0.0654 -0.0798
 8016S        S14820  11.132   1.918  28.799 -0.0315  0.4892 -0.5892
 8017S        S14821   0.128   4.012  26.859  0.6293 -0.6448  0.4048
 8018S        S14822  11.801   7.766  23.564  0.0798  0.4704  0.1230
 8019S        S14823   9.579  10.431  16.563  0.0302 -0.2826 -0.1005
 8020S        S14824   9.523   7.318  19.972 -0.3378 -0.0089  0.1608
 8021S        S14825   9.001   0.440  24.621  0.2717 -0.2915  0.4276
 8022S        S14826   8.169  12.334  21.718  0.0036 -0.1312  0.2290
 8023S        S14827   6.080   1.282  21.805  0.2471  0.1371  0.0476
 8024S        S14828   2.845  10.074  19.515 -0.2065  0.2741  0.1699
 8025S        S14829   7.623  10.829  11.976 -0.0486  0.0557 -0.1926
 8026S        S14830   9.555   3.218  30.086  0.4959 -0.2972 -0.6267
 8027S        S14831   7.261   8.105  20.905  0.9056 -0.0161 -0.1871
 8028S        S14832   8.671   1.790  32.130  0.0050  0.1087  0.2835
 8029S        S14833   1.118   0.448  11.456  0.6176  0.1063  0.2956
 8030S        S14834   8.212   1.799  17.600  0.2097  0.3123  0.3305
 8031S        S14835   9.450  11.582  25.904 -0.3455  0.1966  0.0994
 8032S        S14836   7.272   7.327  23.295  0.0905  0.4173  0.1000
 8033S        S14837   1.021   8.400  28.752  0.4946 -0.3974 -0.3974
 8034S        S14838   3.720   3.372  12.125 -0.0626  0.0878 -0.2737
 8035S        S14839   9.122   6.146  11.167 -0.0592 -0.0117 -0.4182
 8036S        S14840  11.584   2.472  19.220  0.1907  0.3982  0.2759
 8037S        S14841  11.997   6.056  15.266 -0.5250 -0.0978  0.4241
 8038S        S14842   0.766  11.459  45.102 -0.0014  0.5927  0.2173
 8039S        S14843   2.095  11.948  41.793 -0.2810  0.1020  0.1591
 8040S        S14844   6.456   3.218  26.530 -0.1040  0.3717 -0.2836
 8041S        S14845   3.500  10.944  31.093  0.0925  0.1022 -0.1763
 8042S        S14846   4.604   5.668  18.907  0.2872 -0.2179  0.0387
 8043S        S14847   8.239   7.439  24.123  0.1456 -0.2105 -0.0488
 8044S        S14848   1.497  11.816  25.656 -0.3232  0.5044 -0.1018
 8045S        S14849   1.453   3.811  13.516  0.1562 -0.6910 -0.2380
 8046S        S14850   3.804   9.036  22.839 -0.2348  0.2744  0.2018
 8047S        S14851  12.109   4.052  16.897 -0.3280  0.3229  0.0586
 8048S        S14852  11.155   9.153  27.573  0.3949 -0.1266  0.0275
 8049S        S14853   7.633   5.200  17.445 -0.1037 -0.2392  0.0993
 8050S        S14854  12.327   7.811  18.072  0.2143  0.0153 -0.0005
 8051S        S14855  11.055   7.826  22.656  0.2248  0.0143 -0.3185
 8052S        S14856   5.060   5.824  17.627  0.0310 -0.2312  0.0032
 8053S        S14857  10.998  10.268  17.053 -0.4612  0.1666 -0.3507
 8054S        S14858   3.682   1.602  26.066 -0.4487 -0.2749 -0.5828
 8055S        S14859   6.419   1.260  11.482  0.2162  0.0461 -0.3412
 8056S        S14860   6.444  10.117   9.985  0.3635 -0.3050 -0.1527
 8057S        S14861   7.616   7.122  27.291 -0.3417  0.1548  0.2932
 8058S        S14862   2.652   4.364  22.576 -0.1589  0.0731  0.2761
 8059S        S14863   3.847  12.049  24.725 -0.3076  0.2707 -0.4126
 8060S        S14864   0.238   4.042  13.396  0.3561  0.3111  0.2282
 8061S        S14865   7.463   6.876  20.524 -0.1775 -0.0672 -0.4260
 8062S        S14866  10.976   6.901  18.669 -0.0250  0.6490 -0.1014
 8063S        S14867   9.643   6.153  23.792 -0.3507 -0.2202  0.1724
 8064S        S14868   5.607   3.823  47.598  0.0459 -0.0310 -0.1413
 8065S        S14869  10.086   7.020  24.313  0.0536 -0.1218 -0.5335
 8066S        S14870   1.192   9.223  18.042 -0.0673  0.4465 -0.3654
 8067S        S14871   5.850   0.619  22.800 -0.3920 -0.3134 -0.2893
 8068S        S14872   9.340   3.117  13.882 -0.2843 -0.0808 -0.3512
 8069S        S14873   9.834   0.733  19.922  0.0285 -0.4434 -0.5835
 8070S        S14874  11.747   7.353  44.081 -0.3116 -0.5935  0.6634
 8071S        S14875   4.469   9.434  11.525 -0.0936 -0.1486  0.2166
 8072S        S14876   2.251   8.042  19.688  0.2287  0.1447  0.1366
 8073S        S14877   7.121   4.396  22.363  0.2314 -0.0974  0.1059
 8074S        S14878   4.658   6.526  27.249 -0.4785  0.2774 -0.1321
 8075S        S14879   1.839   1.505  25.708  0.0279 -0.0058 -0.1966
 8076S        S14880   3.334   2.020  27.103 -0.0282  0.2754 -0.2169
 8077S        S14881   3.127   0.074  26.378 -0.2046 -0.1330  0.0071
 8078S        S14882   8.570   7.096  14.148 -0.3365  0.1916 -0.2144
 8079S        S14883  10.233   1.830  19.685 -0.0212 -0.5255  0.1967
 8080S        S14884   7.208   1.870  12.636  0.2406  0.3511  0.5154
 8081S        S14885   2.529  11.799  13.808 -0.2663 -0.0935 -0.5580
 8082S        S14886  11.578   7.772  25.003 -0.3648  0.2318  0.7184
 8083S        S14887   5.526   6.671  29.475  0.3903 -0.1104  0.4024
 8084S        S14888  10.114   0.283  19.759 -0.6250 -0.0652  0.1688
 8085S        S14889   3.267   0.208  21.600 -0.0068 -0.1883  0.0474
 8086S        S14890  10.968   5.318  28.838 -0.6581  0.1548  0.0163
 8087S        S14891   7.641   0.543  25.233 -0.2240 -0.1362 -0.3260
 8088S        S14892   8.601  10.705  16.744  0.0682 -0.3547 -0.1801
 8089S        S14893  12.212   5.631  15.040 -0.0155  0.4040 -0.1026
 8090S        S14894   6.060   7.165  23.196  0.0725  0.0198  0.0397
 8091S        S14895   3.044   0.324  28.365  0.3809 -0.6603  0.2924
 8092S        S14896   4.954  11.562  46.655 -0.0905 -0.2366  0.1073
 8093S        S14897   3.026   3.689  25.290 -0.1053  0.1988  0.4619
 8094S        S14898   7.436  11.666  27.359 -0.4732  0.0488  0.0299
 8095S        S14899   8.286   5.543  27.534  0.6115 -0.0015  0.1049
 8096S        S14900  10.445  10.837  15.018 -0.2488  0.3402 -0.0659
 8097S        S14901   1.385   6.087  33.738 -1.2474 -0.2058  0.6403
 8098S        S14902  10.868   0.068  32.148 -0.3039 -0.2357 -0.4269
 8099S        S14903   7.031  10.495  16.909  0.3294 -0.0078  0.0492
 8100S        S14904  11.289   2.923  29.032  0.3030 -0.2249 -0.3926
 8101S        S14905   7.709   7.927  15.570 -0.1706 -0.0422 -0.1413
 8102S        S14906   4.743   2.242  24.970 -0.2052 -0.1089  0.5169
 8103S        S14907   5.447   5.853  28.593 -0.9565  0.3105 -0.1659
 8104S        S14908   3.089   4.661  31.586 -0.2010  0.1697  0.2429
 8105S        S14909   7.119  11.014  19.276  0.0932  0.2467  0.4258
 8106S        S14910   1.524   6.426  31.134 -0.1846 -0.3503 -0.7240
 8107S        S14911  11.043   1.292  19.563  0.2529 -0.1870 -0.0136
 8108S        S14912   0.231  10.169  17.699  0.2584 -0.1357 -0.2179
 8109S        S14913  10.821   5.492  14.763  0.0094  0.0514 -0.0219
 8110S        S14914   4.591   8.254  21.796  0.4472 -0.0318  0.4798
 8111S        S14915   3.072   6.697  26.766  0.6966 -0.0854 -0.6788
 8112S        S14916  11.585   2.980  28.602  0.2802 -0.0700 -0.1091
 8113S        S14917   0.052   4.718  19.332  0.1666  0.1976  0.3919
 8114S        S14918   1.845   5.309  17.466  0.2021  0.4911 -0.0872
 8115S        S14919   2.252   6.264  14.616  0.3263 -0.0368  0.2000
 8116S        S14920  11.849   8.033  31.146  0.6533 -0.1642 -0.1634
 8117S        S14921  11.271   6.173  10.764 -0.0049  0.0357  0.4147
 8118S        S14922   1.964   7.033  26.841 -0.5595 -0.0420 -0.2982
 8119S        S14923   4.082  10.754  12.075  0.5469 -0.3926  0.3968
 8120S        S14924   8.485   9.859  21.428 -0.3298  0.1788  0.0496
 8121S        S14925   8.134   2.723  26.463 -0.7123  0.2833  0.0491
 8122S        S14926   1.252   2.687  15.529  0.6173 -0.0865  0.0266
 8123S        S14927   7.890   0.273  32.792 -0.1630 -0.3117  0.2256
 8124S        S14928   2.810   0.015  20.786  0.0673 -0.3086  0.2344
 8125S        S14929   2.178   4.953  28.014  0.3006 -0.0424  0.1295
 8126S        S14930   5.464  12.081  14.420 -0.1773  0.2251  0.0104
 8127S        S14931   5.873   9.994  32.064  0.0143 -0.0403 -0.3614
 8128S        S14932   4.300  12.087  20.416  0.3967 -0.3468  0.2267
 8129S        S14933   3.941  10.526  24.303 -0.5267  0.1899 -0.0678
 8130S        S14934   1.590  11.814  18.972 -0.1946  0.3496 -0.0949
 8131S        S14935   6.669   0.922  30.327 -0.2209  0.2030 -0.0475
 8132S        S14936  11.046   9.317  25.106  0.2133 -0.2537 -0.0658
 8133S        S14937   9.499   8.106  12.362 -0.1115  0.3651 -0.2547
 8134S        S14938   2.539  11.112  24.678  0.3333 -0.2579  0.2254
 8135S        S14939   4.936  10.451  19.244 -0.3096 -0.2339  0.1036
 8136S        S14940   0.868   6.329  14.092  0.3775  0.4252 -0.0276
 8137S        S14941   1.801   7.903  20.564  0.1142  0.0798 -0.2201
 8138S        S14942   9.424  10.350  19.681 -0.5099  0.4106  0.2997
 8139S        S14943  10.820   1.217  30.543 -0.0840 -0.2535  0.2573
 8140S        S14944   3.809   2.640  24.750  0.1367  0.6527 -0.4084
 8141S        S14945   6.599  10.472  20.331 -0.3530 -0.2650  0.1656
 8142S        S14946   6.348   6.172  15.934  0.2805 -0.4203 -0.2472
 8143S        S14947  10.270  10.744  19.249  0.0361  0.6652 -0.0344
 8144S        S14948   1.791   5.380  13.705  0.1036  0.1835 -0.2602
 8145S        S14949   6.922  11.772  18.161  0.3775  0.2013  0.5693
 8146S        S14950   6.545   6.339  22.908 -0.7017 -0.1706  0.8391
 8147S        S14951   1.079  11.196  30.069  0.1012 -0.2781 -0.2033
 8148S        S14952   4.036   9.663  11.693  0.2680 -0.1276 -0.1477
 8149S        S14953   5.285   0.767  32.366 -0.2915  0.1032 -0.2052
 8150S        S14954   8.400   1.548  17.129 -0.3689  0.2941 -0.1187
 8151S        S14955   6.299   5.058  13.665  0.7832  0.0470 -0.2396
 8152S        S14956   4.637  11.944  21.498 -0.2624 -0.4311 -0.3401
 8153S        S14957  12.201   4.094  24.444  0.5091  0.5140 -0.3978
 8154S        S14958  10.416  10.771  27.483 -0.2537  0.0102  0.5749
 8155S        S14959   9.676   5.259  18.265 -0.3158 -0.0689 -0.0431
 8156S        S14960   8.454   1.482  12.030 -0.0417 -0.0617 -0.1431
 8157S        S14961   4.840   6.063  25.882 -0.4299  0.4509  0.3239
 8158S        S14962   1.580   4.382  27.340  0.1457 -0.1184  0.3503
 8159S        S14963  10.656   8.047  28.752 -0.1003 -0.1281 -0.1903
 8160S        S14964   6.440   7.803  22.535 -0.3741  0.5900 -0.1209
 8161S        S14965   3.689  10.340  22.475  0.2252 -0.3545 -0.5281
 8162S        S14966  10.410   4.588  17.429  0.1375  0.2440 -0.1193
 8163S        S14967  11.074   5.667  13.552  0.2420  0.1920  0.0755
 8164S        S14968   5.220   5.722  30.982  0.3568 -0.6035  0.1457
 8165S        S14969   3.345   2.864  30.733  0.1622  0.7098  0.2370
 8166S        S14970   7.804   8.171  25.709  0.0877  0.0444  0.4173
 8167S        S14971   4.666   4.593  29.686 -0.2293  0.0708 -0.5812
 8168S        S14972   1.234  12.357  20.106  0.2795 -0.4962 -0.4299
 8169S        S14973  10.371   1.925  13.343 -0.1037 -0.0312  0.2601
 8170S        S14974   3.576   6.627  25.145  0.1615 -0.3689 -0.3692
 8171S        S14975   4.538   4.581  18.559  0.1137  0.6326  0.0022
 8172S        S14976   3.112   1.668  24.760 -0.1907 -0.0897 -0.1798
 8173S        S14977  11.378   5.848  11.638 -0.0767  0.0858  0.2776
 8174S        S14978   6.314   1.077  12.412 -0.4719  0.3031  0.4766
 8175S        S14979   4.093   0.023  20.010  0.3774 -0.3142  0.0745
 8176S        S14980   9.294  10.887  15.545 -0.0141 -0.3839 -0.1445
 8177S        S14981  10.477   9.070  12.898 -0.0602 -0.2594  0.3311
 8178S        S14982   2.633   2.668  19.238  0.1024 -0.1234  0.3576
 8179S        S14983   0.094   6.414  19.816 -0.1993 -0.0233  0.2498
 8180S        S14984   1.608  11.865  26.791  0.0914 -0.3594 -0.0505
 8181S        S14985   5.622  10.586  14.330  0.1058 -0.1019 -0.8185
 8182S        S14986   0.360   0.648  18.961 -0.4509  0.0343 -0.5793
 8183S        S14987   2.700   4.615  16.808  0.0859  0.3189 -0.1638
 8184S        S14988   9.865   8.084  14.209  0.1576  0.2714 -0.0856
 8185S        S14989  11.296   5.562  30.639  0.1053 -0.0428  0.2371
 8186S        S14990   2.518   9.081  22.418 -0.2401  0.0432  0.5856
 8187S        S14991   6.206   9.680  20.126  0.4418  0.0047  0.5782
 8188S        S14992   7.559   9.483  22.945 -0.1117  0.2390  0.2205
 8189S        S14993   8.487   9.009  19.531 -0.2510 -0.0558  0.1430
 8190S        S14994   9.216   7.331  29.590 -0.9062 -0.1494 -0.6259
 8191S        S14995   5.840  12.241  15.586 -0.0606 -0.1717 -0.4406
 8192S        S14996   7.198  11.428  13.094 -0.0448  0.1616 -0.1451
 8193S        S14997   3.374   8.801  16.042  0.3421 -0.2101 -0.0797
 8194S        S14998   7.028   0.335  29.539 -0.7673  0.0752  0.4526
 8195S        S14999  10.102  11.688  14.172  0.0876 -0.6393  0.4735
 8196S        S15000   3.943   8.317  20.581 -0.5121  0.2826 -0.0811
 8197S        S15001   4.274   3.154  13.686  0.4270  0.4875  0.2710
 8198S        S15002   6.234   6.694  23.358  0.0693  0.0898 -0.4376
 8199S        S15003   1.237   2.576  21.786 -0.2576  0.2421 -0.1402
 8200S        S15004   2.460   7.838  16.142  0.2359 -0.2867  0.2522
 8201S        S15005   8.531   8.241  18.666  0.3278 -0.4208 -0.1830
 8202S        S15006   6.368   1.516  17.763  0.8318 -0.1185 -0.7343
 8203S        S15007  10.840   8.241  27.710 -0.3729  0.6770 -0.3089
 8204S        S15008   5.007   6.431  12.997  0.5717 -0.0182 -0.6100
 8205S        S15009   2.067  10.709  18.180 -0.0295  0.4011 -0.1100
 8206S        S15010   0.166  10.712  15.319 -0.2013  0.6142 -0.2320
 8207S        S15011   5.929   1.798  13.440  0.1631 -0.1232 -0.1760
 8208S        S15012   0.914   6.410  27.764 -0.2845  0.1480 -0.1513
 8209S        S15013   1.642   9.475  13.504  0.3260 -0.2851 -0.0627
 8210S        S15014   9.176   9.653  29.936 -0.0032 -0.3295 -0.1109
 8211S        S15015   8.186  11.299  20.359  0.2547  0.5806 -0.2353
 8212S        S15016  11.981   0.711   1.843 -0.1355  0.7140  0.7394
 8213S        S15017   9.281   4.279  29.180  0.4971  0.0736 -0.0172
 8214S        S15018  12.360   7.833  20.116  0.0217  0.6792  0.3236
 8215S        S15019   4.694   1.841  24.011 -0.0354  0.1752  0.0683
 8216S        S15020   7.409   8.313  20.339  0.3578 -0.0334  0.0345
 8217S        S15021   7.214  11.663  17.708 -0.1054 -0.1459  0.2098
 8218S        S15022   1.013   8.477  40.185  0.4245  0.0927  0.2545
 8219S        S15023  11.111  10.999  21.355 -0.3818  0.0180 -0.1185
 8220S        S15024   6.205   1.078  13.745  0.4383 -0.4099  0.0849
 8221S        S15025   4.393   1.011  14.235  0.0875 -0.3132 -0.2192
 8222S        S15026  10.895  10.379  28.210 -0.2710 -0.5582  0.0834
 8223S        S15027   1.585   6.921  48.175  0.2564 -0.3215  0.3359
 8224S        S15028   3.082   2.677  26.919 -0.1606  0.0644  0.2409
 8225S        S15029   5.316   6.445  20.249 -0.2851 -0.0050  0.3501
 8226S        S15030   8.736  10.374  17.124 -0.2677  0.3417  0.2305
 8227S        S15031   7.554   9.764  22.067 -0.2448  0.6494 -0.3043
 8228S        S15032   9.930  11.190  28.131  0.0455  0.1667 -0.2519
 8229S        S15033  10.176   7.002  25.316  0.1705  0.1059 -0.2687
 8230S        S15034  10.510   5.644  22.666  0.2774  0.5069  0.1000
 8231S        S15035   4.968  12.203  13.226  0.1414  0.0998  0.1313
 8232S        S15036  10.199   2.227  18.771  0.5180  0.2384  0.0417
 8233S        S15037   2.787   6.576  15.328 -0.4752  0.2050 -0.1010
 8234S        S15038   6.790   4.766  16.547 -0.3199  0.0965  0.5141
 8235S        S15039   6.206  10.019  16.199  0.6630  0.3864  0.2070
 8236S        S15040   6.862  11.932  21.403  0.3482 -0.0679 -0.5223
 8237S        S15041   5.725   6.813  26.802 -0.3018  0.1235 -0.5593
 8238S        S15042  10.134   0.156  27.510  0.2410  0.3004  0.1860
 8239S        S15043   9.806  10.519  15.741 -0.0197  0.1850 -0.2824
 8240S        S15044   8.523   5.628  19.416 -0.3359  0.5944 -0.1610
 8241S        S15045   5.838   6.666  22.236 -0.2443 -0.2202 -0.6255
 8242S        S15046   8.458  11.746  16.908 -0.2714 -0.0930 -0.3890
 8243S        S15047   0.784  11.846  15.439  0.2582 -0.4773  0.3101
 8244S        S15048   8.316   2.279  27.133  0.0177  0.1295  0.2151
 8245S        S15049  10.746   6.053  10.911  0.0381  0.1861  0.0834
 8246S        S15050   5.045   3.334  15.441  0.4195  0.0016 -0.4130
 8247S        S15051   5.258   8.926  30.187 -0.2494  0.0908 -0.9377
 8248S        S15052   5.589  10.076  31.356  0.1785  0.0642 -0.1543
 8249S        S15053   4.663   1.391  16.777  0.6423 -0.7876  0.0354
 8250S        S15054   0.773   4.624  18.426 -0.1316 -0.6758  0.1404
 8251S        S15055  11.378   1.291  26.987  0.2396  0.2019  0.4531
 8252S        S15056  11.438   7.357  19.071  0.0507 -0.2023 -0.2838
 8253S        S15057   0.687   2.566  27.752  0.1285  0.1753 -0.3337
 8254S        S15058  10.037   8.490  20.298  0.2841 -0.6204  0.1197
 8255S        S15059   8.597   7.245  23.777 -0.2838  0.0655 -0.3158
 8256S        S15060  10.250   5.796  13.379  0.0397  0.1362 -0.1413
 8257S        S15061   1.727   4.798  19.176  0.4162 -0.3704  0.2243
 8258S        S15062   3.692   2.177  24.785  0.4522  0.2359 -0.0245
 8259S        S15063   7.363   8.985  15.763  0.3597 -0.1833  0.0710
 8260S        S15064   8.824  10.216  31.194 -0.3224 -0.4750 -0.2545
 8261S        S15065   2.624  10.445  23.051  0.1692  0.2213  0.5000
 8262S        S15066   7.538   3.823  14.440  0.0683  0.0125 -0.3138
 8263S        S15067   5.129   3.963  14.249 -0.0797  0.0550 -0.6304
 8264S        S15068   0.100  10.765  24.520  0.0934 -0.0683 -0.6090
 8265S        S15069   9.349  10.589  32.270 -0.6781  0.2597 -0.1845
 8266S        S15070  11.798   2.707  23.992  0.2725  0.0423  0.1506
 8267S        S15071   3.160  11.991  19.853  0.0144  0.6476 -0.1495
 8268S        S15072   2.811   6.288  18.300  0.2878 -0.2755 -0.2633
 8269S        S15073   6.542   0.387  14.453  0.1225 -0.0881  0.1537
 8270S        S15074   4.351  10.447  17.739 -0.2879  0.0085  0.0576
 8271S        S15075   9.165   5.740  29.811  0.1692 -0.7219  0.0198
 8272S        S15076   6.347   4.405  20.205  0.4718 -0.1594 -0.2014
 8273S        S15077   3.915   3.261  18.082 -0.3580 -0.4025 -0.0219
 8274S        S15078  11.050   5.694  14.110  0.0115  0.2730 -0.1832
 8275S        S15079   7.719   3.160  26.977  0.2737  0.1742 -0.0332
 8276S        S15080  11.420  12.320  17.370  0.1421  0.1088 -0.7171
 8277S        S15081   6.676   3.614  11.780  0.0450 -0.3673 -0.1863
 8278S        S15082  12.275  11.370  14.659  0.1350  0.0229 -0.0223
 8279S        S15083   3.740   0.953  30.361 -0.0963  0.7506  0.2708
 8280S        S15084  10.663   2.500  17.394  0.5337 -0.4275 -0.0274
 8281S        S15085  12.143   6.716  24.436  0.0236  0.0393  0.5367
 8282S        S15086   5.719  10.119  10.557  0.0392  0.0912  0.2859
 8283S        S15087   7.104  12.014  26.334 -0.2032  0.0260  0.2610
 8284S        S15088  11.729   2.806  14.261 -0.1805  0.2838 -0.1693
 8285S        S15089   1.324   8.295  27.503  0.5877 -0.3756  0.5419
 8286S        S15090   7.470   3.653  24.521  0.1661 -0.2272 -0.1809
 8287S        S15091   3.672  11.378  26.877 -0.0436  0.3001 -0.1605
 8288S        S15092   3.792   6.217  23.594 -0.2977  0.2200 -0.1323
 8289S        S15093   9.821   9.957  20.392 -0.2145  0.3243  0.0835
 8290S        S15094   4.959   3.433  22.413  0.4826 -0.0316 -0.5019
 8291S        S15095   2.463   5.845  20.510 -0.3222 -0.3138 -0.5622
 8292S        S15096   8.136   1.992  17.114 -0.2565 -0.0679 -0.2332
 8293S        S15097   7.689   2.637  25.658  0.0108  0.1085  0.4793
 8294S        S15098  11.036  10.157  18.349  0.4701 -0.0619 -0.0955
 8295S        S15099  11.231   9.894  15.899 -0.2901 -0.2612 -0.1650
 8296S        S15100   5.483   9.726  21.046 -0.1461  0.1493 -0.0840
 8297S        S15101   8.099  11.767  21.762  0.2642  0.1022 -0.0856
 8298S        S15102   3.593   4.279  26.265 -0.0107 -0.2169 -0.1358
 8299S        S15103  12.315   6.992  22.334  0.2051 -0.2063  0.3510
 8300S        S15104   9.988   4.843  16.605  0.0051 -0.4361 -0.1323
 8301S        S15105  10.811   1.286  29.507 -0.0465  0.4131 -0.6218
 8302S        S15106  10.233   2.077   3.794  0.0453  0.0260  0.5508
 8303S        S15107   0.022   8.822  11.236 -0.2782  0.1730  0.1380
 8304S        S15108  12.296   6.306  18.458  0.0384 -0.0183  0.8473
 8305S        S15109   1.705   8.466  27.762 -0.4560 -0.2223  0.5989
 8306S        S15110  12.074   6.815  12.600  0.3710 -0.1123  0.1836
 8307S        S15111  10.498   0.120  19.374 -0.4397 -0.0091 -0.0386
 8308S        S15112   3.297   2.828  23.599  0.6953 -0.1235 -0.3545
 8309S        S15113   2.141   2.977  20.543  0.6019 -0.1297  0.1311
 8310S        S15114   4.719   5.119  21.169 -0.0004 -0.5952  0.0919
 8311S        S15115   4.137   9.135  23.173  0.1737 -0.0890  0.0490
 8312S        S15116  10.768   3.738  20.522  0.4043 -0.0841  0.6739
 8313S        S15117   7.557  10.676  14.270 -0.2867 -0.6107  0.4854
 8314S        S15118   6.028   2.659  29.696  0.3856  0.1733 -0.2050
 8315S        S15119  11.871   9.989  15.460  0.3052  0.4526  0.4253
 8316S        S15120   1.298  11.491  25.286 -0.0066 -0.0659  0.6885
 8317S        S15121   8.163   0.152  22.370  0.3415  0.5045  0.1377
 8318S        S15122   1.908   2.249  14.929  0.1261 -0.2482  0.0795
 8319S        S15123   5.514   6.226  18.895 -0.4641  0.1760 -0.5177
 8320S        S15124   1.820   3.611  15.981  0.0769  0.1379 -0.4083
 8321S        S15125   6.591  10.487  20.882 -0.2995 -0.5526  0.3132
 8322S        S15126  10.680   3.246  14.155  0.1363  0.3762  0.1205
 8323S        S15127   4.979   2.471  13.945 -0.4594  0.2299  0.1292
 8324S        S15128  11.657   1.219  26.220  0.3944 -0.0974  0.2090
 8325S        S15129   5.047  11.584  13.046  0.3318 -0.2167 -0.6719
 8326S        S15130   1.670   6.185  13.265  0.2113  0.5614  0.4527
 8327S        S15131   4.316   1.064  32.593  0.7507 -0.0042 -0.1223
 8328S        S15132  12.074   1.087  24.820 -0.4896 -0.6094 -0.7272
 8329S        S15133   8.572   7.434  21.392 -0.2739  0.3594 -0.1579
 8330S        S15134  10.745   8.711  29.942  1.0066 -0.3823  0.1966
 8331S        S15135   9.526   5.064  17.839 -0.0177 -0.1439 -0.3442
 8332S        S15136  11.141   7.901  13.347  0.1260  0.3652  0.0424
 8333S        S15137   8.172  10.272  28.046  0.0344 -0.3275 -0.0757
 8334S        S15138   3.255   1.684  17.970  0.1539  0.1985 -0.2333
 8335S        S15139   4.432   9.998  27.502 -0.0298 -0.0916 -0.2865
 8336S        S15140   5.639   9.242  23.770  0.3045 -0.0901 -0.6629
 8337S        S15141   6.183   2.769  27.033  0.1114  0.0466 -0.5042
 8338S        S15142   3.292   3.853  12.724 -0.2430 -0.5295 -0.4133
 8339S        S15143   3.144  10.998  22.446  0.1254  0.2173 -0.6696
 8340S        S15144   7.548   0.924  18.381  0.6252 -0.1041  0.2261
 8341S        S15145  11.756   7.974  29.442 -0.6980 -0.1659  0.3039
 8342S        S15146   1.037   4.436  13.438 -0.5335 -0.2432 -0.1348
 8343S        S15147   7.911   6.021  13.631  0.4308  0.1157 -0.0039
 8344S        S15148   2.752   2.808  23.261 -0.2280  0.3175  0.1842
 8345S        S15149   2.048   5.489  19.965 -0.5238 -0.5402  0.0987
 8346S        S15150   7.988   2.714  17.831 -0.1614  0.1365 -0.2768
 8347S        S15151   7.986  11.019  12.844 -0.2300 -0.0574 -0.0483
 8348S        S15152   1.574   1.678  15.855  0.7571 -0.5333 -0.1887
 8349S        S15153   6.649   9.646  19.340  0.1764  0.3038 -0.0179
 8350S        S15154   5.269   7.624  12.036 -0.0825  0.1420 -0.1197
 8351S        S15155   1.799   3.573  24.616  0.1307 -0.0954 -0.1755
 8352S        S15156  11.349   4.318  12.484 -0.2559  0.8871 -0.1270
 8353S        S15157   1.312  11.170  30.629 -0.0762  0.7825 -0.0092
 8354S        S15158  11.683   1.027  11.588 -0.0948  0.2823 -0.2596
 8355S        S15159  10.072  10.908  12.072  0.1688 -0.1932 -0.1617
 8356S        S15160  10.401   8.494  24.756 -0.2483  0.5181  0.2537
 8357S        S15161   4.873  11.253  24.208  0.1899  0.4944  0.1457
 8358S        S15162   9.334   7.840  29.360  0.0411  0.3939 -0.5065
 8359S        S15163   6.280   5.290  23.899  0.3366  0.2487  0.0621
 8360S        S15164  10.692   9.554  13.787 -0.0588 -0.5400 -0.2410
 8361S        S15165   8.155   1.749  29.659 -0.2967 -0.6848  0.1655
 8362S        S15166   9.041  10.562  20.405  0.3547  0.4350  0.6340
 8363S        S15167   8.444   3.209  14.877 -0.5675 -0.4057 -0.1384
 8364S        S15168   7.544  10.085  35.272 -0.2342 -0.3005 -0.0863
 8365S        S15169   8.166   9.767  20.014 -0.1440  0.1872  0.6201
 8366S        S15170   7.116   3.656  22.313 -0.2718  0.0504  0.2561
 8367S        S15171   9.217   9.207  15.818 -0.4304 -0.0257 -0.4828
 8368S        S15172   2.805   1.596  23.766  0.0809  0.3319  0.0185
 8369S        S15173   8.021   8.678  26.514 -0.4019  0.4106 -0.3804
 8370S        S15174   1.906   0.513  19.702 -0.1749 -0.2349  0.0771
 8371S        S15175   0.913   0.622  21.875  0.0542  0.1842  0.1223
 8372S        S15176  11.116   0.957  29.899 -0.1171  0.2564 -0.5464
 8373S        S15177  10.483   4.911  13.535  0.5727  0.0419  0.1207
 8374S        S15178   2.219   5.450  26.992  0.5958  0.5057  0.3661
 8375S        S15179  12.016  10.518  18.227  0.0105  0.1236  0.1892
 8376S        S15180   7.378  11.403  30.164  0.1090 -0.5324 -0.4622
 8377S        S15181   0.071   9.887  16.880  0.1535 -0.2464  0.0469
 8378S        S15182   6.426   9.620  17.108  0.5875  0.3774  0.0369
 8379S        S15183   4.999   7.566  28.347 -0.1470 -0.0428  0.2077
 8380S        S15184   5.139   4.960  26.972 -1.0560 -0.5515  0.3118
 8381S        S15185   1.204   4.909  22.500  0.0158  0.0150 -0.0062
 8382S        S15186   7.668   2.351  10.348 -0.6345  0.7061  0.3306
 8383S        S15187   4.280   9.535  15.639 -0.2205  0.4375  0.2255
 8384S        S15188   2.992   9.128  25.402  0.4239  0.1161  0.7066
 8385S        S15189   0.150   5.664   0.115  0.2042  0.0325  0.2558
 8386S        S15190   1.021   2.331  17.923 -0.1220  0.2219  0.3553
 8387S        S15191   7.639   6.263  34.122  0.4427 -0.4533  0.2509
 8388S        S15192   6.484   2.714  22.791 -0.3862  0.5448 -0.2109
 8389S        S15193   0.191   9.591  15.980  0.1302  0.3073  0.0528
 8390S        S15194  12.316  10.155  13.745  0.1329 -0.2816 -0.2969
 8391S        S15195   5.846   3.574  17.556 -0.2178  0.4880  0.0338
 8392S        S15196   2.073   8.870  16.500 -0.1468  0.4022 -0.2952
 8393S        S15197   8.492   9.897  26.654 -0.0140  0.3012 -0.5036
 8394S        S15198   1.863   8.264  17.808  0.0493 -0.0067 -0.1805
 8395S        S15199   5.903   9.951  21.281 -0.5751  0.4332 -0.0985
 8396S        S15200   0.612  11.701  24.404  0.2302 -0.1131 -0.1019
 8397S        S15201   8.278  10.112  12.922 -0.0769  0.0424 -0.4220
 8398S        S15202   6.082   0.672  25.091  0.1531 -0.0621  0.0903
 8399S        S15203   2.389   5.419  19.269  0.3451 -0.1059 -0.3184
 8400S        S15204  12.115   1.458  27.543  0.4303  0.0790 -0.1553
 8401S        S15205   3.974   3.638  12.474 -0.2035 -0.0155  0.1625
 8402S        S15206   3.624   2.084  23.184  0.3646 -0.1160 -0.2177
 8403S        S15207   4.586   0.844   5.162 -0.3059 -0.0508 -0.1095
 8404S        S15208   7.976   8.391  26.923 -0.2244 -0.2673 -0.4814
 8405S        S15209   3.807   6.834  25.660  0.5326  0.7318 -0.2271
 8406S        S15210   9.801   2.436  17.840  0.3130 -0.1825 -0.0344
 8407S        S15211   4.417   8.753  26.113  0.7767  0.0256 -0.1294
 8408S        S15212   7.233  12.170  15.494  0.3949 -0.1963  0.1332
 8409S        S15213   5.277   5.307  12.975 -0.3012  0.5919 -0.3042
 8410S        S15214   8.898   7.009  27.098 -0.2773 -0.0931  0.1864
 8411S        S15215   7.719   5.732  11.310  0.3712 -0.0797 -0.0809
 8412S        S15216  10.195  11.280  20.654 -0.1372 -0.1458 -0.0949
 8413S        S15217   8.646  12.089  29.860 -0.1446  0.8859  0.4315
 8414S        S15218   8.709  11.059  25.400 -0.3694 -0.3354  0.1397
 8415S        S15219   2.626   9.817  17.611 -0.4476 -0.4197 -0.0997
 8416S        S15220   1.087  11.700  19.103 -0.1754 -0.1053 -0.4875
 8417S        S15221   0.918   4.825  26.262 -0.1738 -0.1356  0.1449
 8418S        S15222  10.008   1.445  27.110 -0.0927  0.4351  0.1560
 8419S        S15223   9.116  10.698  21.217  0.5537 -0.0022 -0.3769
 8420S        S15224   2.346  11.328  30.505 -0.2418  0.0230  0.2054
 8421S        S15225   6.517   3.069  22.406  0.0357  0.7072 -0.0693
 8422S        S15226   6.772   3.773  13.626  0.1400 -0.1807 -0.1671
 8423S        S15227   9.763   1.892  22.533 -0.6327  0.2620  0.1164
 8424S        S15228   8.488  10.669  18.004  0.2337 -0.0261 -0.1651
 8425S        S15229   4.023   1.739  21.706  0.4225  0.3910  0.0613
 8426S        S15230  12.354  10.099  26.112  0.3547  0.3199 -0.0082
 8427S        S15231  11.899  11.164  20.517  0.1851  0.2276 -0.4394
 8428S        S15232   4.449   6.766  14.681 -0.1063  0.4608 -0.0349
 8429S        S15233   5.050  11.855  12.496 -0.1030  0.1606 -0.0888
 8430S        S15234   9.608  11.702  27.974  0.0207  0.2809 -0.2560
 8431S        S15235   0.576   1.169  18.917  0.3123  0.3845 -0.2574
 8432S        S15236  10.305   8.393  14.578  0.7476 -0.1211 -0.0126
 8433S        S15237   5.329   6.185  24.699  0.4790  0.1386  0.0237
 8434S        S15238  11.265   2.217  22.295 -0.0084  0.0133  0.0659
 8435S        S15239  11.213   0.316  21.152  0.5368 -0.2622 -0.2110
 8436S        S15240   8.145   3.502  17.178 -0.0852 -0.1229  0.2228
 8437S        S15241   9.471  10.553  25.871  0.3208  0.0204 -0.2152
 8438S        S15242   7.876  11.991  22.529 -0.1126 -0.0107 -0.1214
 8439S        S15243   6.661   1.007  23.448  0.0010 -0.8362 -0.0326
 8440S        S15244  11.774  12.349  19.981  0.1774  0.4726 -0.0983
 8441S        S15245  10.573   2.113  22.408  0.1343 -0.2468  0.1475
 8442S        S15246  10.176   3.928  28.953 -0.3977 -0.2459  0.0560
 8443S        S15247   6.777   5.662  14.776 -0.4758 -0.3254  0.6121
 8444S        S15248   0.128   0.909  20.905 -0.1763 -0.4402  0.1964
 8445S        S15249  10.843   4.584  29.456 -0.0950  0.1698 -0.1006
 8446S        S15250   5.185   7.358  16.798  0.0891 -0.6446  0.1411
 8447S        S15251   1.950   4.422  12.852  0.4651  0.0710 -0.2475
 8448S        S15252  10.588   1.660  25.480 -0.0330  0.2846 -0.5446
 8449S        S15253   2.820   9.310  21.430  0.5159  0.1789  0.4548
 8450S        S15254  11.082   2.625  27.567  0.3918  0.1502  0.1619
 8451S        S15255   4.972  10.627  14.162  0.1415  0.4261  0.1100
 8452S        S15256   7.410   9.350  16.139  0.0470  0.1028 -0.4627
 8453S        S15257   5.908   4.527  17.125 -0.2156 -0.1607  0.0663
 8454S        S15258   5.001   2.892  24.190 -0.1009  0.1252  0.2179
 8455S        S15259   3.161   3.873  21.342 -0.1315 -0.0742  0.1614
 8456S        S15260   6.979  12.024  31.156 -0.2785  0.2006 -0.3252
 8457S        S15261   9.757   8.238  13.305 -0.3078 -0.4601 -0.1199
 8458S        S15262   6.422   8.912  22.662  0.2179  0.7041 -0.2610
 8459S        S15263   6.548   9.066  18.394 -0.0119 -0.3441 -0.1468
 8460S        S15264   7.673   7.360  12.594 -0.1671  0.1567 -0.3085
 8461S        S15265   4.408   8.574  17.332  0.1190  0.1665  0.6863
 8462S        S15266   2.869  11.789  30.744 -0.4625 -0.3378 -0.2715
 8463S        S15267   9.146   7.354  15.379  0.3598 -0.3663  0.0337
 8464S        S15268   1.510   4.103  18.056 -0.2670 -0.1540 -0.6534
 8465S        S15269   7.267  10.397  17.388 -0.3345 -0.6436  0.1630
 8466S        S15270   8.975   6.825  14.141 -0.4684 -0.1883  0.0470
 8467S        S15271   4.369   6.294  27.642  0.1707  0.1362 -0.0978
 8468S        S15272   8.790   5.356  20.833  0.0090  0.4096  0.4530
 8469S        S15273   9.589   0.226  27.689  0.3720  0.0938 -0.0540
 8470S        S15274  10.910   6.209  24.086 -0.6154 -0.0485  0.2348
 8471S        S15275   9.756   2.214  20.062 -0.2436  0.0433 -0.5620
 8472S        S15276   0.026  12.236  16.707 -0.3093 -0.0076  0.2202
 8473S        S15277   2.702   5.716  15.014  0.3444  0.1864 -0.2009
 8474S        S15278   5.771   4.064  17.693  0.2199 -0.2026 -0.2155
 8475S        S15279   7.324  12.066  19.938 -0.2158 -0.1175 -0.3690
 8476S        S15280   0.863   8.376  25.598 -0.1751 -0.1344 -0.2730
 8477S        S15281  10.220   0.807  35.865 -0.1893 -0.2914  0.1934
 8478S        S15282   9.849   9.403  11.882  0.2702 -0.2317 -0.0810
 8479S        S15283   1.310   1.741  23.400  0.0026  0.3321 -0.2448
 8480S        S15284   9.721   4.466  19.082  0.0674  0.1190  0.0420
 8481S        S15285   8.205   3.802  14.088  0.0799  0.0182 -0.0338
 8482S        S15286  12.150   9.803  13.437 -0.0951 -0.1575  0.1700
 8483S        S15287   4.968   6.938  19.168  0.4264 -0.4991 -0.0952
 8484S        S15288   2.918  11.609  28.360 -0.3152  0.1571  0.4412
 8485S        S15289  10.490   3.627  30.696  0.0423  0.0495  0.0960
 8486S        S15290  11.213   0.780   7.443 -0.2172  0.1665  0.3563
 8487S        S15291   8.136   5.062  13.265 -0.0197  0.1913  0.1758
 8488S        S15292   7.928   1.013  31.217 -0.0954  0.3510  0.6473
 8489S        S15293   0.172   8.414  28.236  0.2751  0.6001  0.1880
 8490S        S15294  10.169   6.837  17.629  0.1175  0.0716  0.0781
 8491S        S15295   3.267   5.669  26.327 -0.0613 -0.0005 -0.0295
 8492S        S15296   4.994   7.356  28.902 -0.3090  0.0418  0.0850
 8493S        S15297   3.575   9.332  23.227 -0.1987  0.0126  0.1284
 8494S        S15298   9.511   9.478  20.434  0.3354 -0.2506  0.4460
 8495S        S15299  10.327   8.968  20.261 -0.0871  0.5115  0.0823
 8496S        S15300   9.047   5.659  17.444  0.1459 -0.1313 -0.2069
 8497S        S15301   7.703   1.984   9.967 -0.1034  0.3968  0.1964
 8498S        S15302   8.223   5.125  15.906  0.0107 -0.1292 -0.0127
 8499S        S15303   7.708   8.612  15.636 -0.4608 -0.1802  0.0184
 8500S        S15304   1.002  10.526  20.822  0.2767  0.2282 -0.1172
 8501S        S15305   6.892   6.294  17.105  0.1914  0.0172  0.5145
 8502S        S15306   7.299   4.847  17.354 -0.1926  0.1201 -0.0017
 8503S        S15307   2.315  11.285  21.243 -0.2949 -0.0155 -0.3367
 8504S        S15308   4.630   1.167  12.888  0.0533  0.0385  0.2348
 8505S        S15309   1.808   1.095  21.978  0.1414 -0.0420 -0.5375
 8506S        S15310   9.971   8.907  11.644 -0.2538  0.1654 -0.1095
 8507S        S15311  11.714   6.627  10.863  0.0052  0.2437 -0.3992
 8508S        S15312   0.537  12.071  22.840  0.0037 -0.1140 -0.3074
 8509S        S15313   8.088   1.040  21.592  0.3606 -0.4888 -0.0876
 8510S        S15314  10.703  10.239  27.456  0.6889 -0.2760 -0.4404
 8511S        S15315   2.333   1.883  11.678  0.1097 -0.3590  0.2628
 8512S        S15316   9.399  11.920  11.130 -0.6805 -0.0207  0.4933
 8513S        S15317   7.984  10.049  13.534  0.0377  0.4269  0.3087
 8514S        S15318   5.410  10.233  17.633 -0.0568 -0.0493 -0.0182
 8515S        S15319   2.965   6.233  17.766 -0.0376 -0.4305 -0.2746
 8516S        S15320   4.429   5.153  22.089 -0.2155  0.3983  0.0630
 8517S        S15321   5.274   7.156  15.934 -0.3482  0.2171  0.1156
 8518S        S15322   6.389   5.551  13.561 -0.0817  0.4793 -0.2829
 8519S        S15323   5.183   1.486  26.636  0.6349  0.3460 -0.0391
 8520S        S15324   5.658  10.679  22.153 -0.0533  0.1777 -0.0083
 8521S        S15325   7.600   8.512  16.966  0.1209  0.0358  0.2713
 8522S        S15326   0.181   8.422  24.228  0.2954  0.2325 -0.5781
 8523S        S15327   6.849   4.237  18.584 -0.5593  0.2707  0.3167
 8524S        S15328   3.106  10.534  18.797 -0.1786  0.1297 -0.1260
 8525S        S15329  10.108   9.443  30.623 -0.0722 -0.8936  0.4625
 8526S        S15330   1.942   0.152  12.730  0.0702  0.3068  0.4703
 8527S        S15331   3.357   0.062  25.353  0.0900 -0.4367  0.1413
 8528S        S15332   8.889   6.813  22.049  0.1002  0.4118 -0.3559
 8529S        S15333   3.273   8.049  11.659 -0.3655 -0.1337 -0.1189
 8530S        S15334   0.391  10.893  16.643 -0.2360  0.3383 -0.1311
 8531S        S15335   2.511   2.862  29.590  0.1360 -0.2791  0.3345
 8532S        S15336  11.648   7.149  29.550 -0.5901  0.4244  0.0401
 8533S        S15337  10.804   7.929  16.303 -0.2490 -0.1408 -0.5838
 8534S        S15338   7.461   8.602  18.484 -0.1810  0.0851 -0.0597
 8535S        S15339   1.123   2.080  21.609  0.0779  0.2317 -0.6840
 8536S        S15340   9.150   1.130  37.054  0.2300  0.5084  0.4126
 8537S        S15341   6.261   5.298  28.633  0.2989  0.5963  0.5675
 8538S        S15342  11.236   8.035  12.486 -0.0216 -0.3850  0.6438
 8539S        S15343   7.944   6.506  15.097 -0.0076 -0.0857 -0.1440
 8540S        S15344   6.967  11.233  14.516  0.1475 -0.1924  0.2592
 8541S        S15345   8.445  12.171  14.284 -0.8021 -0.1433  0.2482
 8542S        S15346   0.025  10.624  13.867 -0.0747 -0.2405 -0.0985
 8543S        S15347   0.478   7.091  22.992  0.3592 -0.8929 -0.7853
 8544S        S15348   0.597   8.795  24.519 -0.5170 -0.0274  0.1537
 8545S        S15349  10.927   3.581  18.060 -0.0466  0.5476 -0.0587
 8546S        S15350   6.722   1.877  29.515 -0.2853  0.0154 -0.5118
 8547S        S15351   0.862   2.611  14.099 -0.1808  0.0835  0.1456
 8548S        S15352   6.867   2.819  24.313  0.1185  0.1661 -0.3332
 8549S        S15353   6.370   8.343  16.614  0.2541 -0.2472 -0.3117
 8550S        S15354   9.394   6.012  17.897  0.3132  0.1167  0.4532
 8551S        S15355   9.163   9.193  12.504  0.1730 -0.3866  0.0294
 8552S        S15356   7.723   0.154  23.446 -0.2452 -0.1799  0.5223
 8553S        S15357   3.615  11.491  14.108  0.7047 -0.2498 -0.2273
 8554S        S15358  10.150   6.354  23.596 -0.2130  0.2815  0.0769
 8555S        S15359   9.653   5.571  37.983  0.0529 -0.2834 -0.0370
 8556S        S15360   2.962  11.450  15.385 -0.0480  0.1542  0.0809
 8557S        S15361  12.335  10.121  18.216 -0.1154  0.2634  0.2753
 8558S        S15362  11.727   8.409  25.502  0.1621 -0.1900  0.5904
 8559S        S15363  10.871   6.376  18.513  0.6278  0.0091  0.0865
 8560S        S15364  10.310   5.941  12.461 -0.1024 -0.0111  0.1564
 8561S        S15365   8.690   2.469  21.793  0.0664 -0.0186  0.0267
 8562S        S15366   9.723   8.308  17.237  0.0648 -0.1529  0.2329
 8563S        S15367   9.648   6.879  23.974 -0.1401  0.3333 -0.1352
 8564S        S15368   9.662   0.060  12.650  0.0208 -0.0136  0.4786
 8565S        S15369   5.794   8.550  14.064  0.3480 -0.4019 -0.5144
 8566S        S15370   2.611  11.811  27.868  0.1498  0.3972 -0.3247
 8567S        S15371   7.273   1.558   9.323 -0.4182  0.1719  0.0617
 8568S        S15372   0.237   9.975  13.364  0.0024 -0.0568  0.2985
 8569S        S15373   0.413   4.208  26.431 -0.2828  0.3226 -0.2025
 8570S        S15374   2.155   9.556  17.518  0.3941 -0.1454 -0.0875
 8571S        S15375  11.931   0.252  12.888 -0.2797  0.2123 -0.3506
 8572S        S15376   8.081   7.187  30.435 -0.4125  0.6309  0.0476
 8573S        S15377   0.880  11.993  19.955  0.2926  0.0672 -0.4017
 8574S        S15378   2.365  10.310  12.400  0.4647  0.0163  0.0533
 8575S        S15379   4.602   8.624  22.171  0.5688 -0.3024 -0.7142
 8576S        S15380   4.391  11.006  29.050 -0.1002 -0.0891  0.2229
 8577S        S15381   5.524   2.557  19.242  0.3601 -0.1854  0.4564
 8578S        S15382   0.177   5.026  22.340 -0.0828 -0.0546  0.1848
 8579S        S15383   0.676   7.993  12.356  0.2938  0.0738 -0.1121
 8580S        S15384   7.063   8.825  18.199  0.6194  0.1941 -0.2929
 8581S        S15385   5.505   1.023  14.576  0.2635  0.5274  0.4782
 8582S        S15386   3.649  12.019  22.079  0.0286  0.3309  0.0469
 8583S        S15387   8.112   7.801  14.680  0.0477  0.2601 -0.2626
 8584S        S15388   2.252   6.803  26.278  0.4985  0.1996  0.0454
 8585S        S15389   6.394   1.780  12.349  0.1533 -0.3695  0.1951
 8586S        S15390   9.030   3.943  19.775  0.0739  0.5180 -0.7655
 8587S        S15391   0.511   3.488  17.143 -0.0135 -0.7813  0.3723
 8588S        S15392   6.497   6.419  26.734  0.2001  0.0039 -0.3878
 8589S        S15393   8.444   6.794  19.371 -0.8150  0.3538  0.4556
 8590S        S15394   5.472  11.874  13.082 -0.3000 -0.2107 -0.1294
 8591S        S15395   5.711   5.879  24.454 -0.1536  0.1886 -0.4265
 8592S        S15396   9.022   7.840  17.782 -0.4595 -0.6029 -0.4547
 8593S        S15397   9.428   6.606  16.425 -0.1181  0.0434 -0.4714
 8594S        S15398   8.268   9.951   5.121  0.0349 -0.0979 -0.2463
 8595S        S15399   9.853   1.775  26.142  0.1237 -0.6880  0.1990
 8596S        S15400   9.682   9.666  30.540  0.4430  0.7375 -0.1105
 8597S        S15401   4.220   3.833  23.796 -0.2654 -0.1657  0.3698
 8598S        S15402  11.604   3.498  12.734 -0.2327  0.3981 -0.1636
 8599S        S15403   2.762  10.580  30.991 -0.3718  0.0524 -0.0004
 8600S        S15404   8.182   7.975  24.766 -0.1482  0.1997 -0.3034
 8601S        S15405   8.746   1.739  17.687  0.2374  0.0568 -0.3193
 8602S        S15406   0.816   9.128  28.792  0.2983  0.2245  0.2198
 8603S        S15407   3.796   5.618  21.256  0.2059 -0.5796  0.0445
 8604S        S15408   3.859  11.009  24.597  0.1281  0.4097 -0.0924
 8605S        S15409   3.196   3.412  21.093 -0.6371 -0.2403  0.3307
 8606S        S15410   4.769  11.066  20.560  0.1261 -0.2975 -0.8254
 8607S        S15411   9.765  11.095  31.285  0.3266  0.2373 -0.6240
 8608S        S15412   3.918   5.864  13.702 -0.6727  0.1935  0.3177
 8609S        S15413   0.977   5.134  11.753  0.2889  0.2870  0.1813
 8610S        S15414   9.669   8.719  18.078  0.3939  0.3162  0.0904
 8611S        S15415   6.398  10.762  15.001  0.2170 -0.0259  0.5186
 8612S        S15416   9.874   6.774  32.629 -0.4421 -0.3149 -0.1556
 8613S        S15417   6.144  12.056  29.203 -0.1555 -0.4912  0.2837
 8614S        S15418   6.163   9.860  47.797  0.0582 -0.1041 -0.1095
 8615S        S15419   6.048   2.774  20.040  0.3293 -0.2938 -0.2682
 8616S        S15420   0.162   2.528  21.151 -0.3493 -0.0918 -0.1698
 8617S        S15421   4.708   7.419  17.715  0.3194 -0.1999 -0.4213
 8618S        S15422   8.340   1.724   9.406  0.2693  0.0643  0.4104
 8619S        S15423   1.675   4.865  13.881  0.2306 -0.0027 -0.3965
 8620S        S15424   5.406   9.613  11.842  0.4243 -0.5018  0.1238
 8621S        S15425   3.899   0.650  11.724  0.0526 -0.1574 -0.1290
 8622S        S15426   0.214   0.507  29.874 -0.4957  0.1110 -0.0684
 8623S        S15427   4.219   4.370  20.573 -0.3746 -0.2384 -0.5896
 8624S        S15428   2.001   3.219  21.943 -0.1936  0.0479 -0.1999
 8625S        S15429   1.865   5.760  12.792  0.3371  0.3964  0.1000
 8626S        S15430   0.028   6.201  12.740 -0.2656  0.0064  0.2293
 8627S        S15431   0.221   6.718  25.425 -0.0491 -0.0969  0.2014
 8628S        S15432  11.236   9.162  17.330  0.0266  0.2379  0.4339
 8629S        S15433  11.483   4.692  24.196 -0.3905  0.1424  0.3551
 8630S        S15434   8.500  12.170  13.358 -0.0703 -0.0631 -0.6628
 8631S        S15435   7.035   4.743  14.890 -0.3347  0.1904  0.0026
 8632S        S15436   4.376   3.790  16.102  0.0484  0.1368 -0.2356
 8633S        S15437   9.427   0.764  30.324  0.8048  0.4182 -0.1442
 8634S        S15438   8.014  11.019  32.244  0.1161 -0.2030 -0.1293
 8635S        S15439   9.023   6.874  24.497  0.3314  0.2561  0.0882
 8636S        S15440   0.538   8.539  20.523  0.4114 -0.4297  0.2772
 8637S        S15441   2.360   9.102  11.906 -0.2662 -0.2240  0.0098
 8638S        S15442   2.682   3.158  12.911  0.0195 -0.6317  0.1066
 8639S        S15443   3.818   6.468  21.117  0.8468  0.3510 -0.1719
 8640S        S15444   9.258   2.243  25.642 -0.2024 -0.1903  0.0479
 8641S        S15445   0.232   1.402  23.815 -0.2604  0.5358  0.1665
 8642S        S15446   5.383   8.121  23.351  0.4160  0.2933  0.2509
 8643S        S15447   8.633   4.309  16.051  0.0472 -0.3123 -0.3378
 8644S        S15448   0.408   8.068  15.652  0.1704  0.4049  0.1369
 8645S        S15449  11.195   3.068  21.524  0.1362 -0.7472  0.1849
 8646S        S15450   7.445   6.610  23.104 -0.1540  0.0661 -0.3772
 8647S        S15451  11.536   6.952  19.314 -0.2934  0.2539 -0.4954
 8648S        S15452   3.764   5.605  15.156  0.2421 -0.1353 -0.0727
 8649S        S15453  11.515   0.503   3.863  0.1787 -0.1989  0.1952
 8650S        S15454   3.536  11.631  16.120 -0.3301 -0.4873  0.3245
 8651S        S15455   4.668   3.227  21.484  0.0138 -0.1278  0.6649
 8652S        S15456   6.765   0.763  16.033 -0.4833  0.0827 -1.1282
 8653S        S15457  10.231  11.415  27.748 -0.3693  0.4937  0.1556
 8654S        S15458   6.407   9.901  12.134 -0.0369 -0.3608  0.0766
 8655S        S15459   6.625   9.618  48.158  0.1746  0.0043  0.3880
 8656S        S15460   3.145  11.212  24.390  0.0165 -0.8275 -0.3438
 8657S        S15461   6.863   4.163  21.830 -0.2691 -0.1975 -0.3249
 8658S        S15462   9.051   5.738  25.852 -0.3954 -0.5413  0.3356
 8659S        S15463   2.488   1.277  24.809 -0.3824  0.0198  0.3747
 8660S        S15464   0.679   3.389  29.185  0.0805 -0.1103 -0.4664
 8661S        S15465   8.197   5.984  18.127  0.0423  0.3105 -0.1677
 8662S        S15466  10.570   1.808  18.802  0.3922  0.4577  0.1146
 8663S        S15467   9.037   5.690  37.407 -0.4849  0.5470  0.3805
 8664S        S15468   4.045   3.119  18.589  0.3733  0.3561  0.4247
 8665S        S15469   0.409  10.744  31.018 -0.8952 -0.0577 -0.4101
 8666S        S15470   5.364   7.065  12.759 -0.5017 -0.1861 -0.4072
 8667S        S15471   3.522   4.559  28.979 -0.5483  0.2266  0.4170
 8668S        S15472  12.309   4.557  26.522 -0.0463 -0.4144  1.0030
 8669S        S15473  11.777   8.238  13.102 -0.2564 -0.2021 -0.1750
 8670S        S15474   1.915   2.258  28.801  0.5478 -0.3477  0.7943
 8671S        S15475   9.273   1.722  27.412  0.7179  0.5722  0.3847
 8672S        S15476   7.727  11.946  26.441 -0.0031  0.1933 -0.2374
 8673S        S15477  11.134   3.076  22.740 -0.0000  0.4628 -0.5954
 8674S        S15478   1.976  12.161  31.256  0.0364  0.3861 -0.9589
 8675S        S15479  11.517   4.335  21.248 -0.2866 -0.3112  0.2799
 8676S        S15480   8.422   4.021  16.699 -0.1600 -0.0869  0.1415
 8677S        S15481   6.874   8.769  14.093  0.2984  0.1044  0.3808
 8678S        S15482  11.876   0.104  12.012 -0.2148  0.1809 -0.1634
 8679S        S15483   2.522  10.386  16.523 -0.0801 -0.0781 -0.4929
 8680S        S15484  11.779   8.322  28.515  0.1354 -0.0480 -0.0617
 8681S        S15485   8.778   3.886  16.391 -0.1024 -0.0376  0.0337
 8682S        S15486   8.370   0.445  19.712  0.5164 -0.0828  0.0579
 8683S        S15487   9.762   7.343  29.743  0.0493 -0.1589  0.4951
 8684S        S15488   9.699   3.169  26.717  0.2015  0.1775  0.0307
 8685S        S15489  11.561  12.128  18.261 -0.3270  0.0885  0.5841
 8686S        S15490   8.530  10.350  15.327  0.2029  0.2718  0.2816
 8687S        S15491   1.639   8.000  13.949  0.2546  0.2228  0.2675
 8688S        S15492   3.457   6.007  31.869 -0.5871 -0.0753  0.1765
 8689S        S15493   3.671   8.031  19.767  0.2341 -0.3927 -0.8412
 8690S        S15494  12.121   6.721  20.623  0.3493 -0.6162  0.5208
 8691S        S15495  12.040   0.006  19.133 -0.0344  0.4101  0.2647
 8692S        S15496  11.625   9.598  15.162  0.6476 -0.2877  0.0081
 8693S        S15497   7.176   1.500  30.907 -0.0822  0.3258  0.5635
 8694S        S15498   0.488   8.871  23.771 -0.1630  0.2770  0.0995
 8695S        S15499   9.679   3.475  13.483 -0.7373  0.0303 -0.0540
 8696S        S15500   7.833   3.074  11.590 -0.2922 -0.0790 -0.4920
 8697S        S15501   7.595   7.898  26.604  0.2031  0.4040 -0.0758
 8698S        S15502   9.013   6.187  20.247  0.0584 -0.1887 -0.4541
 8699S        S15503   3.952  11.153  11.026  0.4024  0.0330 -0.4727
 8700S        S15504   5.026   7.472  19.300  0.0048  0.0641 -0.3727
 8701S        S15505   6.443  10.486  16.599 -0.0336 -0.2920 -0.1108
 8702S        S15506   1.082   3.934  26.027 -0.1646  0.1371 -0.3171
 8703S        S15507   6.584   9.605   2.220  0.0093 -0.1392  0.0311
 8704S        S15508   6.796   0.518  16.923 -0.1581 -0.1303  0.1062
 8705S        S15509   6.425  11.346  20.694 -0.1956 -0.3208 -0.1357
 8706S        S15510  10.332   3.042  29.307 -0.1925 -0.3815  0.0877
 8707S        S15511   9.352  10.099  20.294 -0.6448  0.2885  0.3148
 8708S        S15512  12.026  10.307  31.544  0.3222 -0.2043  0.0777
 8709S        S15513  10.716   4.670  21.661 -0.3404 -0.2976  0.4097
 8710S        S15514   5.188  10.023  31.972 -0.4148 -0.2350  0.1550
 8711S        S15515   4.379   9.834  22.237  0.1520  0.0490 -0.6344
 8712S        S15516   6.412   0.306  15.041 -0.3486  0.2552 -0.2839
 8713S        S15517   2.427  11.609  26.068  0.0851 -0.2422 -0.2130
 8714S        S15518   8.515   6.532  30.478 -0.3363  0.5192  0.0697
 8715S        S15519   9.512   3.269  28.747 -0.0240  0.1884  1.0113
 8716S        S15520   0.150  11.503  21.327  0.0728 -0.0804 -0.4346
 8717S        S15521  10.216   9.312  22.797  0.2416 -0.0844  0.5081
 8718S        S15522   0.068   7.792  21.979  0.0530 -0.0502 -0.4099
 8719S        S15523   2.595   7.467  32.067  0.3537 -1.3375 -0.4071
 8720S        S15524   6.452   2.502  29.907  0.4900  0.3179 -0.3101
 8721S        S15525   1.069   7.973  25.337 -0.0103  0.0173 -0.0007
 8722S        S15526   5.983   5.213  19.097 -0.2436 -0.0614 -0.3130
 8723S        S15527   6.753   9.899  25.786  0.0970 -0.1443 -0.1493
 8724S        S15528   8.625  11.698  24.556  0.3048 -0.7387 -0.2535
 8725S        S15529  10.438   7.544  12.603  0.0291  0.7998  0.1337
 8726S        S15530   0.353   9.064  25.375  0.2643 -0.1143 -0.1296
 8727S        S15531  10.129   3.079  13.374 -0.1423 -0.0478 -0.3044
 8728S        S15532   6.795  10.569  27.107 -0.2899  0.3440 -0.2723
 8729S        S15533   1.376   7.851  10.621 -0.3664  0.1917 -0.3923
 8730S        S15534   5.050  12.196  12.142 -0.0642 -0.2815 -0.0663
 8731S        S15535   2.677   6.438  29.507 -0.2073 -0.3367 -0.2721
 8732S        S15536   3.190   2.235  25.761 -0.3023  0.0951 -0.4230
 8733S        S15537   7.371   2.634  30.345 -0.5569 -0.3855 -0.3119
 8734S        S15538   1.867   9.059  28.598  0.1197  0.2580 -0.3440
 8735S        S15539   5.814  11.187  22.004  0.1010  0.0295  0.1331
 8736S        S15540   1.643   0.944  26.087  0.2175  0.2732  0.1087
 8737S        S15541   4.125   8.325  14.445  0.1062  0.5124  0.2012
 8738S        S15542   0.893   3.775  20.765  0.1076  0.3896  0.2015
 8739S        S15543   6.836   9.215  16.994 -0.0179 -0.4670  0.1081
 8740S        S15544   0.708  11.197  27.582  0.2043 -0.1181  0.5869
 8741S        S15545   5.341   0.761  21.643 -0.0254  0.1425  0.6005
 8742S        S15546   1.578   2.472  12.814  0.1065 -0.0339 -0.1494
 8743S        S15547   0.332   7.984  18.842  0.6515  0.2689  0.5716
 8744S        S15548  10.858   1.005  15.699  0.0150  0.2307 -0.2108
 8745S        S15549   9.832   8.939  29.363  0.1235 -0.1496 -0.7732
 8746S        S15550   6.297   2.677  30.526 -0.0714  0.3781  0.4415
 8747S        S15551   5.969  11.981  14.600  0.3975 -0.0943 -0.3205
 8748S        S15552   0.975   9.994  28.963  0.0261 -0.1982 -0.5817
 8749S        S15553   2.188   6.143  15.891  0.0904 -0.4815 -0.3888
 8750S        S15554   8.139  11.398  15.230 -0.0166  0.1474 -0.5305
 8751S        S15555   8.972   8.137  26.999  0.0218  0.1201  0.0165
 8752S        S15556   8.531   7.145  20.430  0.3717  0.5910  0.1017
 8753S        S15557  10.586   6.493  25.876  0.5203 -0.4633  0.7647
 8754S        S15558   9.875   1.013  25.243  0.0027  0.1524 -0.3285
 8755S        S15559   7.308   5.492  11.518 -0.3544  0.3032 -0.1064
 8756S        S15560   1.516   6.334  12.247 -0.0212 -0.1278  0.0814
 8757S        S15561   4.123   9.202  25.053 -0.4088 -0.1262 -0.1963
 8758S        S15562   5.658   8.428  15.582 -0.1198 -0.1817 -0.2209
 8759S        S15563  10.871   2.043  26.808 -0.1427  0.6172  0.6696
 8760S        S15564   7.278   7.925  27.069 -0.0634 -0.2000  0.1551
 8761S        S15565   8.891   0.314  19.588  0.0347 -0.1950  0.4132
 8762S        S15566   8.347   8.167  16.922 -0.3729  0.2666 -0.2080
 8763S        S15567   9.319   4.124  28.473  0.3961 -0.2884 -0.1465
 8764S        S15568   5.320   1.268  23.311  0.0046  0.3778 -0.1326
 8765S        S15569  11.943   1.830  25.311  0.0578 -0.0037  0.5065
 8766S        S15570  10.241  10.351  14.796 -0.3226 -0.1147  0.1947
 8767S        S15571   3.917  11.380  12.877  0.1926  0.1047 -0.1984
 8768S        S15572  12.213   2.875  24.740 -0.4767 -0.2376 -0.0020
 8769S        S15573  11.207   0.497  16.602 -0.2767 -0.1429 -0.3728
 8770S        S15574  10.639   5.479  13.317 -0.1879 -0.3251 -0.2051
 8771S        S15575   2.438  10.776  25.069 -0.0675 -0.1023 -0.1847
 8772S        S15576   0.680  10.719  25.305 -0.0423 -0.3298 -0.3488
 8773S        S15577   7.860  11.453  27.694 -0.3284 -0.2392  0.3808
 8774S        S15578   6.144  11.857  29.654 -0.2238 -0.6848 -0.3809
 8775S        S15579   5.973   9.127  12.386 -0.1710 -0.1341 -0.0623
 8776S        S15580   3.427   6.258  34.220 -0.3661 -0.7714  0.1229
 8777S        S15581   8.279   3.059  13.324  0.6187 -0.5837 -0.0001
 8778S        S15582   8.585   7.776  25.034  0.3890  0.3002 -0.5490
 8779S        S15583  11.720   2.991  22.415 -0.2101  0.2563  0.0618
 8780S        S15584   7.746   7.488  24.282  0.3941  0.0518  0.3181
 8781S        S15585   7.716   0.930  30.231  0.1301  0.3885 -0.0995
 8782S        S15586   1.387   1.905  46.155 -0.0509 -0.5202  0.2678
 8783S        S15587   7.115   0.148  26.069  0.0612 -0.6595 -0.4550
 8784S        S15588   2.416   8.949  21.924 -0.2550 -0.0185 -0.4503
 8785S        S15589   7.490   4.067  20.417 -0.2092 -0.5505  0.2210
 8786S        S15590   4.946   4.359  28.524 -0.0852  0.0865  0.3384
 8787S        S15591   7.736   1.632  20.681  0.2149 -0.3096  0.3366
 8788S        S15592   8.623  12.268  11.633  0.1332  0.2255 -0.1490
 8789S        S15593   8.267   1.992  21.885 -0.0836 -0.9405  0.0909
 8790S        S15594   2.699   1.417  20.640  0.2003  0.0937 -0.2143
 8791S        S15595   6.835  10.983  14.969  0.6419  0.0126  0.3081
 8792S        S15596   3.643  10.810  26.417  0.1329  0.0634 -0.7900
 8793S        S15597   1.702   1.410  28.357  0.4810  0.4594 -0.1140
 8794S        S15598   6.437   2.809  17.164 -0.0855  0.0879  1.1156
 8795S        S15599   5.786   0.474  25.864 -0.4720 -0.0882  0.0260
 8796S        S15600   9.727   3.675  26.503 -0.9267  0.3001 -0.2780
 8797S        S15601   9.469   6.051  25.931 -0.1314 -0.0455  0.0777
 8798S        S15602   6.144   5.578  27.155  0.0270  0.0109 -0.1813
 8799S        S15603  11.510   2.642  14.693 -0.4892 -0.3490  0.0446
 8800S        S15604   2.222  10.424  26.632 -0.1863  0.0305  0.1530
 8801S        S15605   1.647   7.538  17.229  0.1723  0.4101 -0.2928
 8802S        S15606   9.807   6.585  14.982 -0.3687  0.0652  0.1996
 8803S        S15607   8.766   7.771  26.661 -0.1571  0.2863  0.1737
 8804S        S15608  10.412   0.305  15.415 -0.1757 -0.0605  0.5835
 8805S        S15609   9.493   5.926  30.884 -0.2834  0.0722 -0.4407
 8806S        S15610  11.558   3.902  12.301  0.0708  0.3036  0.3304
 8807S        S15611   9.742   9.389  29.807 -0.1894 -0.0095  0.5299
 8808S        S15612   7.976   3.509  13.107  0.1966  0.0065  0.0116
 8809S        S15613   0.310   3.956  20.723  0.2886 -0.2616  0.0975
 8810S        S15614   9.016  11.647  30.070  0.1348 -0.8039 -0.7833
 8811S        S15615  11.655  11.544  19.654 -0.1365  0.0664 -0.1863
 8812S        S15616   2.040  10.651  26.214 -0.2882 -0.4328  0.8577
 8813S        S15617   9.330   9.555  16.294  0.3268 -0.1341 -0.1774
 8814S        S15618   5.910   9.709  18.074 -0.1406 -0.1278  0.0591
 8815S        S15619   3.938  12.272  26.802  0.2008  0.1231  0.1001
 8816S        S15620   2.828   8.318  19.853  0.2357 -0.7059 -0.4615
 8817S        S15621   6.939   9.877  22.899 -0.2652  0.1319  0.1996
 8818S        S15622   4.073  11.585  32.738  0.6775  0.5970  1.3291
 8819S        S15623   0.221  11.809  19.857  0.2218 -0.3298  0.0828
 8820S        S15624   1.685  12.245  19.932 -0.4164 -0.1192  0.2340
 8821S        S15625   1.053  10.080  23.715 -0.1898 -0.0930 -0.1774
 8822S        S15626   3.354   3.833  18.803 -0.1805 -0.3756  0.0008
 8823S        S15627   4.067   1.706  12.756 -0.6202 -0.3110  0.3290
 8824S        S15628   3.656   8.408  18.675  0.2056  0.1937  0.0661
 8825S        S15629   8.785   1.587  30.836  0.2028  0.1782 -0.4448
 8826S        S15630   7.620   9.476  29.067  0.4164  0.5384  0.1767
 8827S        S15631   5.267  11.457  17.491 -0.4285  0.3125 -0.1554
 8828S        S15632   7.253   7.395  29.699  0.2303  0.1527  0.0882
 8829S        S15633   6.694   0.525  21.683 -0.1999 -0.5680  0.3562
 8830S        S15634   5.052   2.208  24.351  0.7703 -0.4905 -0.1574
 8831S        S15635  11.087   3.796  14.407  0.1189 -0.1526  0.0071
 8832S        S15636  11.584  10.216  26.636  0.2782  0.2337 -0.7784
 8833S        S15637   2.042  10.475  12.964 -0.3905 -0.6315  0.5265
 8834S        S15638   4.960   3.028  25.952  0.0358 -0.4769  0.7113
 8835S        S15639  10.438   0.873  11.398  0.4969  0.3635 -0.6882
 8836S        S15640  11.143   3.696  15.470 -0.2866  0.0642 -0.4889
 8837S        S15641   8.587  11.438  30.224 -0.7863  0.2671  0.5801
 8838S        S15642   3.743  11.251  19.700  0.5216  0.7772 -0.5577
 8839S        S15643  12.058   3.354  22.263  0.3629 -0.4498  0.0518
 8840S        S15644  11.462   3.504  26.546  0.7129 -0.1196  0.4474
 8841S        S15645   3.958   5.946  24.205 -0.3667  0.0026 -0.6267
 8842S        S15646   6.573  12.344  30.989  0.2627  0.1512  0.6508
 8843S        S15647   6.121   7.265  22.203 -0.0133  0.0689 -0.2217
 8844S        S15648   0.633   6.951  21.246  0.2014  0.6216  0.3138
 8845S        S15649   0.781   4.180  16.796  0.5363  0.3199  0.2163
 8846S        S15650   3.358   5.847  17.802 -0.4615 -0.3549 -0.0746
 8847S        S15651   2.395   1.266  23.805  0.0160 -0.1457 -0.2850
 8848S        S15652   0.606   0.440  32.665  0.2354  0.0369 -0.1116
 8849S        S15653   1.705   7.663  21.597  0.3754  0.4165  0.5745
 8850S        S15654   6.185   0.413  21.665 -0.1469 -0.0895  0.0051
 8851S        S15655   4.929   8.919  21.825 -0.1442 -0.1923 -0.1615
 8852S        S15656   4.553   3.704  21.184 -0.2099 -0.1816 -0.1413
 8853S        S15657  10.527   7.096  30.417  0.3929 -0.1949  0.1151
 8854S        S15658   7.832   7.804  13.557  0.6422 -0.2937 -0.2908
 8855S        S15659   4.678   7.718  24.017  0.7444  0.6072 -0.2085
 8856S        S15660  10.912   2.268  22.731  0.3649  0.4701 -0.2394
 8857S        S15661   6.170   0.563  12.653 -0.2678 -0.1340  0.3051
 8858S        S15662   6.884   0.658  23.111  0.2716 -0.2364 -0.0570
 8859S        S15663   9.072  12.297  11.284  0.1149 -0.1913  0.0604
 8860S        S15664   1.807   2.915  15.249 -0.2759 -0.1498 -0.3439
 8861S        S15665   8.617  10.859  26.367 -0.5017 -0.0428 -0.3709
 8862S        S15666   8.835   3.372  23.998  0.1953 -0.1481 -0.1731
 8863S        S15667   0.003   2.531  30.424  0.0632 -0.0482 -0.7696
 8864S        S15668   4.667   3.802  27.225  0.3065 -0.2968 -0.0677
 8865S        S15669   6.696   9.099  20.029  0.1767 -0.2153 -0.3221
 8866S        S15670  10.597   0.875  11.880  0.2090 -0.3832 -0.4066
 8867S        S15671   9.726   9.345  26.256  0.1111  0.3029  0.5722
 8868S        S15672   6.274   1.626  22.184  0.1179  0.4579 -0.4866
 8869S        S15673   1.507  12.314  16.852 -0.4856 -0.0709  0.2576
 8870S        S15674   9.752   2.157  16.792  0.1839 -0.2221 -0.0276
 8871S        S15675  11.676   6.495  12.993  0.3306 -0.2979  0.2352
 8872S        S15676   5.332   2.710  16.821 -0.5545  0.0546 -0.0157
 8873S        S15677   5.122  10.999  15.344 -0.0065 -0.1294  0.4198
 8874S        S15678   5.487   5.794  31.716  0.2982  0.1350  0.3223
 8875S        S15679   6.975  11.155  22.280  0.0599 -0.6946  0.4555
 8876S        S15680   2.283   0.523  17.685  0.1142  0.0677 -0.3585
 8877S        S15681   8.318  11.028  28.418 -0.5762  0.2301 -0.1046
 8878S        S15682   9.579   4.909  23.698 -0.1460  0.0810  0.0947
 8879S        S15683   1.819   9.332  31.496 -0.2079  0.4182 -0.3318
 8880S        S15684   3.413   1.959  30.823 -0.2303  0.3680  0.1324
 8881S        S15685   8.432  10.139  28.489  0.4152  0.4161  0.2847
 8882S        S15686  12.056   9.868  18.669 -0.0439 -0.0723  0.1493
 8883S        S15687   7.706   8.821  12.025 -0.1757  0.0906  0.6727
 8884S        S15688   0.133   0.201  19.253 -0.0795  0.0613 -0.2081
 8885S        S15689   6.279   2.836  13.426  0.3927 -0.3680 -0.5810
 8886S        S15690   7.015   9.246  26.022 -0.0751  0.0006 -0.0972
 8887S        S15691   2.457   2.484  22.814 -0.3845  0.3876 -0.0444
 8888S        S15692  11.823   6.824  22.304 -0.0205 -0.4295 -0.2653
 8889S        S15693   7.188   9.339  21.326  0.0875 -0.2483  0.0208
 8890S        S15694   0.229   2.405  27.584 -0.0722 -0.5298 -0.4201
 8891S        S15695   6.597   7.408  18.044 -0.3666 -0.2082  0.1384
 8892S        S15696   9.755  11.689  14.526 -0.5857  0.1001  0.1628
 8893S        S15697   8.766   6.932  16.881 -0.1969  0.2963 -0.0629
 8894S        S15698   1.768   9.908  18.635  0.0869  0.6032 -0.1820
 8895S        S15699   4.397   9.629  19.281 -0.1043  0.2925 -0.5594
 8896S        S15700   6.761   6.701  29.184 -0.0012 -0.6484 -0.1670
 8897S        S15701  11.643   7.025  17.907  0.6116  0.1041  0.5194
 8898S        S15702   9.393   6.058  11.939 -0.3080 -0.0778  0.1088
 8899S        S15703   2.793   0.481  19.331 -0.0383  0.0947  0.4113
 8900S        S15704   6.439  10.523  23.279 -0.5307 -0.1604  0.0045
 8901S        S15705   7.028   6.117  21.960  0.2966 -0.2759 -0.1712
 8902S        S15706  10.963  11.822  31.803  0.4955 -0.2000  0.3000
 8903S        S15707   2.158   1.677  13.529  0.0511 -0.1695 -0.4071
 8904S        S15708   9.731   5.477  19.350 -0.1304 -0.5723  0.2901
 8905S        S15709  10.335   0.723  20.024 -0.0363 -0.1647  0.0801
 8906S        S15710   2.867   8.437  17.896  0.2760 -0.1627 -0.4347
 8907S        S15711  10.989   5.071  15.017  0.0509  0.1247  0.4018
 8908S        S15712   2.329   5.904  12.494 -0.1357 -0.2132  0.3944
 8909S        S15713   6.836   9.114  33.002  0.4422  0.0285  0.4653
 8910S        S15714   5.407   2.003  13.483  0.0028 -0.4288 -0.2460
 8911S        S15715   8.935   4.920  33.454  0.3518  0.1373 -0.2836
 8912S        S15716   8.905  10.264  12.574 -0.1783  0.0582 -0.2119
 8913S        S15717   6.386   4.385  16.938  0.4981  0.3623 -0.2019
 8914S        S15718  11.036   2.363  11.385  0.1844  0.1638 -0.4110
 8915S        S15719   7.154   2.885  16.442  0.7273  0.0727 -0.3272
 8916S        S15720   5.065   5.930  20.584 -0.3948 -0.1483 -0.3213
 8917S        S15721  12.339   3.582  30.808  0.7581 -0.0667 -0.4686
 8918S        S15722  10.915   3.227  24.463  0.0761  0.3666  0.1156
 8919S        S15723   2.153  11.845  18.214  0.3864  0.1797 -0.7289
 8920S        S15724   0.975   3.865  32.396  0.5197  0.1707 -0.3754
 8921S        S15725   4.188   1.581  25.985 -0.2238  0.0466  0.1075
 8922S        S15726   6.605   2.287  42.636 -0.2821  0.4745  0.5107
 8923S        S15727   4.935   1.943  14.577  0.0456 -0.1042 -0.3049
 8924S        S15728   4.404   6.961  17.687  0.1427 -0.1315 -0.0429
 8925S        S15729  10.630  11.090  25.874 -0.3074  0.1312  0.5728
 8926S        S15730   1.825   4.138  15.120  0.2533 -0.0580  0.0402
 8927S        S15731   8.930   8.055  19.456  0.0464 -0.6979 -0.1010
 8928S        S15732   2.826   4.772  21.153 -0.0333 -0.6712  0.5237
 8929S        S15733   7.767   0.858  11.795  0.1399 -0.1671 -0.2158
 8930S        S15734   7.155   3.351  17.868  0.2404  0.2254 -0.2782
 8931S        S15735   7.819   1.325  12.525  0.1110  0.1047  0.2027
 8932S        S15736   4.283   2.761  12.609  0.0475  0.0764  0.1745
 8933S        S15737  12.262  10.964  20.146  0.6041  0.1220  0.0240
 8934S        S15738   2.260   8.159  24.841 -0.5343  0.2138 -0.0534
 8935S        S15739   1.610   3.953  15.645 -0.0224 -0.2419 -0.1504
 8936S        S15740   9.022   1.818  31.653 -0.5184  0.1418 -0.5127
 8937S        S15741   3.478   1.080  22.292  0.1392  0.1357 -0.2147
 8938S        S15742   4.052  11.595  30.485 -0.4656 -0.1527 -0.1518
 8939S        S15743   2.038  11.685  18.701 -0.1168  0.1093  0.5139
 8940S        S15744   8.329   5.887  11.184 -0.2581 -0.4710  0.2463
 8941S        S15745   1.948   4.519  23.188 -0.8941  0.4908 -0.0341
 8942S        S15746  11.474   9.753  11.618  0.0946  0.0759 -0.0361
 8943S        S15747   0.393   4.234  27.462  0.1728  0.1440 -0.2490
 8944S        S15748   0.780  11.713  17.911  0.5686 -0.6100  0.2411
 8945S        S15749   8.607   7.276  22.090  0.2339  0.1559  0.4101
 8946S        S15750   0.437   7.195  13.642 -0.1470 -0.2993 -0.4367
 8947S        S15751   2.043   8.652  18.969  0.1472  0.0534  0.4676
 8948S        S15752   8.476   6.439  22.258  0.2136  0.9660  0.3561
 8949S        S15753   9.791   2.915  17.608 -0.4223  0.3314 -0.3379
 8950S        S15754   3.759   1.771  17.070 -0.0929 -0.2378  0.0685
 8951S        S15755   8.150  11.545  19.754  0.4102  0.0221 -0.3637
 8952S        S15756   8.046   2.078  11.293 -0.2041 -0.2680  0.1794
 8953S        S15757   9.627   0.293  22.932  0.1982  0.0610 -0.1519
 8954S        S15758   8.315   6.269  20.272 -0.1114 -0.0344 -0.2827
 8955S        S15759  10.490   5.365  16.752 -0.1599  0.5404  0.1775
 8956S        S15760  11.626   0.388  12.378 -0.2732  0.1121  0.3091
 8957S        S15761  10.357   4.324  16.833  0.0148 -0.0516 -0.5722
 8958S        S15762   7.148  10.523  25.376  0.2201 -0.3508  0.3067
 8959S        S15763   1.099   0.087  12.084  0.1248  0.1132 -0.1693
 8960S        S15764   4.726   1.139  15.729 -0.1756 -0.1758  0.2193
 8961S        S15765   4.524   3.639  25.085  0.2107  0.2316  0.2203
 8962S        S15766   1.575   7.787  25.337  0.3445  0.1069  0.7378
 8963S        S15767   7.943  12.201  11.895  0.1430  0.3653 -0.2027
 8964S        S15768  11.293   6.936  27.479 -0.1009 -0.1121 -0.3818
 8965S        S15769   6.814   6.470  17.619  0.0357  0.1551  0.1647
 8966S        S15770   9.025   4.481  25.317 -0.0617 -0.0366  0.0066
 8967S        S15771   6.327  10.310  13.772  0.2694  0.1806  0.1193
 8968S        S15772  10.004   7.986  11.575  0.2798 -0.1798  0.2284
 8969S        S15773   9.223   3.946  14.290  0.0899 -0.3512 -0.0917
 8970S        S15774   7.995   5.522  14.870 -0.1742 -0.0074 -0.2934
 8971S        S15775   6.292  11.222  13.456 -0.1163 -0.2356  0.0380
 8972S        S15776   1.178  10.196  26.777  0.0334 -0.5837  0.2390
 8973S        S15777   9.884   7.686  13.247  0.3605 -0.0885  0.2136
 8974S        S15778   8.557   5.196  12.932  0.2789  0.2126  0.1641
 8975S        S15779   9.688   4.660  16.225 -0.3725  0.0127 -0.3243
 8976S        S15780   6.018   9.575  47.341 -0.2647  0.0466 -0.0515
 8977S        S15781   6.155   7.697  23.530  0.0373  0.0799 -0.3072
 8978S        S15782  10.120  11.857  31.666 -0.1791 -0.3796  0.0760
 8979S        S15783   5.289   4.858  26.449  0.2024 -0.0464 -0.4198
 8980S        S15784   1.207  12.334  20.924  0.0161  0.0131 -0.1470
 8981S        S15785  12.124  12.012  28.297 -0.0198 -0.3917 -0.1229
 8982S        S15786  11.405   5.055  27.727  0.9012 -0.5835 -0.2770
 8983S        S15787   9.157   7.763  28.131  0.2003  0.0469  0.0773
 8984S        S15788   4.280   8.215  26.152  0.1505 -0.1750  0.6145
 8985S        S15789   8.078   4.281  25.546 -0.1296  0.1620 -0.3075
 8986S        S15790  10.722   9.289  28.091  0.0451 -0.1652 -0.3497
 8987S        S15791   8.680   6.705  13.734 -0.4709 -0.7469  0.1532
 8988S        S15792   4.756   2.001  19.774  0.2739  0.4731  0.0780
 8989S        S15793   6.018   0.975  24.590 -0.1995  0.3391 -0.0139
 8990S        S15794   5.931   5.289  24.347  0.3706  0.3075 -0.3743
 8991S        S15795  12.343   6.099  25.893 -0.0925 -0.4275 -0.3554
 8992S        S15796  10.463   1.636  26.915 -0.2879 -0.5226 -0.1011
 8993S        S15797  11.170  10.154  14.665  0.0450 -0.1462 -0.4691
 8994S        S15798   5.475   7.631  19.582 -0.0483 -0.5232 -0.2745
 8995S        S15799   6.773   0.518  32.728 -0.0145  0.4957 -0.4936
 8996S        S15800  10.774   2.224  26.317  0.0939  0.4314  0.2772
 8997S        S15801  11.640   0.364  27.119 -0.0238  0.5269  0.1365
 8998S        S15802   9.076   9.592  27.996  0.4421 -0.0070 -0.1801
 8999S        S15803   0.482  11.960  20.265 -0.0860  0.1690  0.0434
 9000S        S15804   6.377   5.336  14.580  0.2639  0.3961  0.0536
 9001S        S15805   8.667   4.107  22.256 -0.0540  0.4592 -0.2355
 9002S        S15806   1.132   6.050  17.040 -0.2536 -0.2102 -0.0190
 9003S        S15807   1.742   5.561  26.026 -0.1278 -0.4528 -0.3264
 9004S        S15808   9.461   8.965  23.151  0.1166  0.1686 -0.2618
 9005S        S15809   7.876   3.622  18.117 -0.0285 -0.3734  0.8156
 9006S        S15810   6.234   2.028  29.826  0.0382  0.1572  0.1000
 9007S        S15811   5.165   8.279  18.787  0.2324 -0.1119  0.1564
 9008S        S15812   1.789   0.396  24.129  0.2671 -0.0858 -0.0187
 9009S        S15813   7.752   1.951  20.203  0.1336 -0.2050  0.1837
 9010S        S15814   5.221   7.465  20.426 -0.4044 -0.0430 -0.0763
 9011S        S15815   8.040  11.616  23.167  0.3935 -0.0523  0.5958
 9012S        S15816   6.092   4.888  30.007 -0.2065  0.1329  0.4035
 9013S        S15817   9.173   2.842  13.394  0.2188  0.1879  0.0655
 9014S        S15818   6.138   4.055  14.551  0.2234 -0.0118  0.4027
 9015S        S15819   7.673   3.148  26.081 -0.2311 -0.3392 -0.7209
 9016S        S15820   2.191  11.809  22.489  0.1363 -0.6072  0.3511
 9017S        S15821   6.557   2.527  27.648 -0.3221 -0.2217 -0.4492
 9018S        S15822  12.109  12.284  20.985  0.2727  0.3573 -0.0192
 9019S        S15823  10.618   9.981  17.501  0.1786 -0.2059  0.0400
 9020S        S15824   7.821   1.788  22.106  0.0522 -0.2768 -0.2317
 9021S        S15825  10.882   1.350  14.126 -0.1724 -0.1430  0.1246
 9022S        S15826  10.487   2.778  26.872  0.6054 -0.0026  0.0532
 9023S        S15827   1.939  11.917  22.922  0.1029 -0.2158 -0.3811
 9024S        S15828   7.295   1.651  16.090  0.4641 -0.0424 -0.7706
 9025S        S15829   9.778   6.915  20.185 -0.0074  0.4695 -0.0387
 9026S        S15830   2.425   4.927  14.773 -0.2261  0.2794  0.4116
 9027S        S15831   3.136   0.024  29.415 -0.2654  0.3868 -0.1571
 9028S        S15832   9.965  10.061  18.081 -0.2952 -0.0509 -0.2772
 9029S        S15833   0.042   1.857  23.918 -0.2013 -0.7620 -0.2148
 9030S        S15834   5.694   4.652  15.967 -0.0402 -0.1052 -0.1265
 9031S        S15835   5.673   8.638  30.124  0.0994 -0.3000  0.7196
 9032S        S15836  11.026  11.306  30.480  0.0957 -0.4940 -0.2290
 9033S        S15837   2.458   0.787  15.714  0.2569  0.0772 -0.3262
 9034S        S15838  10.567  10.711  13.890  0.1327 -0.3868  0.3336
 9035S        S15839   4.918   6.899  18.471  0.1241 -0.3783 -0.0517
 9036S        S15840   1.820   6.394  13.821 -0.4584 -0.2176 -0.3885
 9037S        S15841   0.349   8.528  18.196  0.0345  0.2522 -0.4674
 9038S        S15842   5.002   6.434  16.552 -0.5770  0.0877  0.2862
 9039S        S15843  10.622  10.673  27.915  0.3340 -0.1620 -0.6935
 9040S        S15844   3.461  12.106  21.609  0.2573 -0.2619  0.1408
 9041S        S15845   2.756   7.164  27.368 -0.0331  0.0101 -0.1845
 9042S        S15846   3.817   0.307  20.386  0.2324  0.2224  0.0749
 9043S        S15847   7.160   7.681  26.546 -0.1463  0.7421  0.3100
 9044S        S15848   7.046   4.629  14.378 -0.0600 -0.4014 -0.1297
 9045S        S15849   9.836   1.483  19.491  0.0474 -0.2880  0.5035
 9046S        S15850   5.201   2.587  12.210  0.1617 -0.2916  0.5809
 9047S        S15851  11.903   6.340  12.510  0.1921 -0.1216  0.4683
 9048S        S15852   1.297   0.277  26.400  0.0543  0.2189  0.1565
 9049S        S15853   2.338   7.800  21.371  0.5500  0.0828 -0.1067
 9050S        S15854   7.089   9.763  17.980 -0.0122  0.2682  0.0390
 9051S        S15855   5.979   4.041  23.900  0.3524  0.0279  0.0869
 9052S        S15856  11.174   4.901  29.862  0.3634  0.1519 -0.1078
 9053S        S15857   4.949   8.055  25.350  0.5093  0.1157  0.1324
 9054S        S15858   8.804   4.389  20.014  0.7564 -0.0960  0.4331
 9055S        S15859   9.490  10.833  18.755 -0.3797  0.3172 -0.0408
 9056S        S15860   6.054   3.747  15.846  0.0396 -0.3848 -0.0001
 9057S        S15861   5.428  12.140  24.372 -0.0658  0.2160  0.4215
 9058S        S15862   5.560   9.528  19.263 -0.2658  0.2128  0.1863
 9059S        S15863  10.030   3.769   6.134  0.0526  0.2582 -0.1762
 9060S        S15864  11.446   3.126  19.953  0.0217 -0.2992 -0.2339
 9061S        S15865   9.207  10.688  19.369 -0.3104 -0.1158 -0.1391
 9062S        S15866   5.470   3.201  14.195 -0.0301 -0.9061 -0.4218
 9063S        S15867   0.788   7.041  27.871 -0.0292  0.1957 -0.1896
 9064S        S15868  12.201   4.168  13.129 -0.3740  0.2774  0.2852
 9065S        S15869  11.446   8.163  31.482 -0.5064 -0.4868 -0.4733
 9066S        S15870   9.687   1.296  27.755  0.1972  0.3769  0.1680
 9067S        S15871   4.087   8.407  29.592  0.3616  0.3255  0.1344
 9068S        S15872   0.443  10.804  12.683  0.0644  0.2005  0.3020
 9069S        S15873   3.326   0.525  26.491  0.4631  0.0523  0.3173
 9070S        S15874  10.906   8.724  15.696 -0.1770 -0.2606  0.0154
 9071S        S15875  11.613  11.058  11.614  0.0289  0.3690  0.1200
 9072S        S15876   0.203   9.212  12.672  0.2031 -0.2634  0.1232
 9073S        S15877   7.900   6.327  19.977  0.3031  0.1249  0.4811
 9074S        S15878   9.184   2.574  18.748 -0.1663 -0.5510 -0.0256
 9075S        S15879   5.863   4.740  18.635 -0.0769 -0.5900  0.3350
 9076S        S15880   1.220   9.954  19.274  0.1405  0.1668  0.0263
 9077S        S15881   7.046   6.159  23.055 -0.3171  0.5096  0.4448
 9078S        S15882  10.846   7.084  25.531 -0.0511  0.5076  0.5088
 9079S        S15883   6.810   9.258  25.068  0.6187  0.2209 -0.0789
 9080S        S15884   6.845   6.544  18.283  0.3054  0.2180 -0.2907
 9081S        S15885   4.595   8.045  38.157 -0.0598 -0.1771  0.1060
 9082S        S15886   6.970   5.804  31.144  0.1948  0.0089  0.1440
 9083S        S15887   4.124  10.620  25.675 -0.4626 -0.3916 -0.1083
 9084S        S15888   1.988   8.540  14.756  0.4802 -0.1310 -0.0961
 9085S        S15889   5.945   5.537  15.374  0.1334 -0.2911  0.7843
 9086S        S15890   8.728  10.152  24.764  0.2207  0.1641 -0.1074
 9087S        S15891   6.564  11.415  20.062  0.4854  0.0454 -0.4795
 9088S        S15892   7.664   9.817  16.440 -0.0010 -0.1039 -0.0008
 9089S        S15893   8.586   0.760  18.694  0.0450  0.1225  0.1739
 9090S        S15894   0.026   5.254  13.733 -0.0281 -0.2046  0.0119
 9091S        S15895   0.295   3.161  25.992 -0.1618 -0.5314 -0.3385
 9092S        S15896   1.671  10.692  29.587 -0.4580 -0.3469 -0.8058
 9093S        S15897   1.915   0.049  27.808 -0.4486  0.8192 -0.9198
 9094S        S15898   1.147   2.461  28.589  0.1929  0.3606 -0.6677
 9095S        S15899   0.666   4.016  23.412 -0.2020 -0.2789 -0.6630
 9096S        S15900   5.618   0.761  24.959 -0.5129  0.7207  0.3432
 9097S        S15901  12.266  11.599   9.419  0.0168  0.0624  0.2931
 9098S        S15902   8.963   3.880  31.679 -0.4919  0.4685 -0.3510
 9099S        S15903   5.681   6.195  19.949 -0.2239 -0.0962  0.3505
 9100S        S15904   0.176  11.720  12.238 -0.3958 -0.4389 -0.1629
 9101S        S15905   9.716   7.044  32.237  0.9240  0.4221  0.1114
 9102S        S15906   8.236   1.596  30.606 -0.2079 -0.1959 -0.0258
 9103S        S15907   6.188   0.996  26.282  0.5149 -0.0441 -0.0222
 9104S        S15908   5.492   7.645  17.348  0.2471  0.2398  0.1630
 9105S        S15909   6.154  10.639  14.215  0.0712  0.1574 -0.0527
 9106S        S15910   5.900   3.594  14.283  0.0836  0.2423 -0.3324
 9107S        S15911   4.210   5.444  18.041  0.0356 -0.1956 -0.0579
 9108S        S15912   3.752   4.002  12.999  0.0045 -0.4212 -0.5590
 9109S        S15913   1.760   4.919  27.691 -0.3120 -0.4410  0.1602
 9110S        S15914   4.343   2.855  21.445  0.0420  0.1388  0.2679
 9111S        S15915   6.808   6.491  15.238 -0.1780 -0.4774 -0.3576
 9112S        S15916   7.633   5.371  24.371 -1.0122 -0.0384 -0.0396
 9113S        S15917   8.923   0.396  13.738 -0.1107 -0.0529  0.3850
 9114S        S15918   7.978   8.317  14.653  0.1676 -0.1853 -0.5204
 9115S        S15919   2.670   4.761  13.293 -0.5815 -0.5606  0.4919
 9116S        S15920   6.163  11.354  19.548 -0.5325  0.2663 -0.2340
 9117S        S15921   4.267   1.266  21.334  0.1692 -0.3521 -0.1293
 9118S        S15922   3.004   2.234  29.611 -0.0847  0.3427 -0.0184
 9119S        S15923   4.239   4.564  24.459 -0.2111  1.1694 -0.3435
 9120S        S15924   3.824   6.946  15.509  0.0543  0.3720 -0.4847
 9121S        S15925   1.493   2.815  24.230  0.4679  0.3041 -0.2306
 9122S        S15926   8.790   4.933  19.464 -0.5271 -0.6767 -0.4426
 9123S        S15927   1.096   0.371  31.244  0.2345  0.3272  0.0979
 9124S        S15928   7.273   1.966  14.861  0.2679 -0.1349 -0.1287
 9125S        S15929   8.685   4.633  21.282 -0.3300  0.5184 -0.0392
 9126S        S15930  11.706   7.470  13.277  0.4692  0.0434  0.0294
 9127S        S15931   0.585   6.103  25.920 -0.1805  0.0662  0.2142
 9128S        S15932   5.799   9.133  22.638 -0.1188  0.0271  0.7735
 9129S        S15933   6.503   2.316  17.388  0.3034 -0.0922  0.0546
 9130S        S15934   2.978   3.126  13.823  0.3025 -0.0989  0.1292
 9131S        S15935   0.742   3.516  38.986  0.3179  0.0792 -0.0057
 9132S        S15936   4.072   9.704  17.363 -0.5586 -0.0396 -0.1317
 9133S        S15937   7.711   9.854  20.282 -0.0877 -0.2647 -0.3130
 9134S        S15938  11.155  11.134  21.872  0.1781 -0.2154 -0.5005
 9135S        S15939   6.450   5.711  12.655  0.5166 -0.0904 -0.1129
 9136S        S15940   7.584   6.495  19.519 -0.0830  0.0308  0.1959
 9137S        S15941   9.907   1.794  29.759 -0.0479 -0.3100 -0.0455
 9138S        S15942   2.534   0.837  32.564  0.5527  0.5465 -0.0870
 9139S        S15943  11.047   0.362  26.914  0.1135  0.2878 -0.3752
 9140S        S15944  11.494   5.441  17.031 -0.0908  0.3299 -0.4690
 9141S        S15945   8.579   8.955  16.562  0.2907 -0.2507 -0.2159
 9142S        S15946   9.665  11.289  25.432  0.2302  0.3275  0.2971
 9143S        S15947   1.753   1.569  19.117  0.5887 -0.0485  0.2878
 9144S        S15948   4.581  11.266  22.674 -0.2755  0.0548 -0.1717
 9145S        S15949   5.675   9.495  24.194  0.2245 -0.1813  0.3311
 9146S        S15950  12.248   2.411  27.113  0.3436 -0.1298  0.3932
 9147S        S15951  12.201   5.918  30.998  0.0656 -0.6491 -0.0002
 9148S        S15952   0.445   7.073  15.857  0.4338  0.2177  0.0924
 9149S        S15953  11.176   3.827  24.691 -0.5258  0.2116 -0.3787
 9150S        S15954   3.169   3.423  22.312 -0.1436 -0.1965  0.0271
 9151S        S15955   9.892   9.242  17.443  0.0382  0.3252  0.0275
 9152S        S15956   7.339   8.950  33.874  0.2578  0.0823  0.6851
 9153S        S15957   3.460   6.301   6.254  0.4370 -0.2039  0.1657
 9154S        S15958   9.445   7.281  18.241 -0.2077  0.3892 -0.0978
 9155S        S15959   5.576   3.240  18.418 -0.5701  0.1916  0.3872
 9156S        S15960  11.608   7.807  12.866 -0.7071  0.1151 -0.0515
 9157S        S15961   8.180   9.971   1.131 -0.1712 -0.1428 -0.2152
 9158S        S15962   8.598   5.318  26.121  0.0074 -0.1971  0.5773
 9159S        S15963  10.666  11.159  17.443  0.5222  0.2998  0.1626
 9160S        S15964  11.111   6.411  24.512 -0.3214  0.7515 -0.3444
 9161S        S15965   9.854   5.172  25.412  0.0327 -0.5405  0.2164
 9162S        S15966   0.100  10.506  18.552  0.3827  0.3262 -0.1833
 9163S        S15967   3.158   8.550  18.740  0.3945 -0.3809  0.1972
 9164S        S15968   7.927   3.278  31.751 -0.2512  0.3408 -0.0854
 9165S        S15969  11.363   2.714  23.595 -0.6710 -0.0616 -0.2097
 9166S        S15970   3.150   3.848  30.886 -0.1023 -0.4730  0.7625
 9167S        S15971   4.034   6.555  24.843  0.5615 -0.0655  0.0433
 9168S        S15972   8.471  11.071  12.480 -0.0774  0.2086  0.1624
 9169S        S15973   5.278   1.684  29.692 -0.0487  0.3611 -0.4817
 9170S        S15974   1.948  12.098  16.719 -0.1505 -0.5567 -0.0991
 9171S        S15975   8.966   9.161  30.940  0.0414 -0.2017 -0.0761
 9172S        S15976   6.074   5.339  18.634 -0.1567  0.4340  0.1896
 9173S        S15977  10.853   1.336  16.066 -0.1869 -0.2489 -0.0132
 9174S        S15978   3.831   9.716  13.826  0.0260 -0.0440 -0.1504
 9175S        S15979   2.334   0.353  21.722 -0.2961 -0.2654 -0.0202
 9176S        S15980   8.713   9.327  16.875 -0.0343  0.0853  0.1864
 9177S        S15981   4.931   7.330  18.785 -0.1104 -0.1134  0.2632
 9178S        S15982  10.578   1.770  29.955 -0.5400 -0.9045  0.6805
 9179S        S15983   1.119  12.023  31.418 -0.5460  0.3478 -0.0270
 9180S        S15984   3.810   8.102  26.646  0.0221  0.3409 -0.0949
 9181S        S15985   2.255   7.373  27.104 -0.7353 -0.9343  0.0347
 9182S        S15986   7.614  10.193  18.283 -0.2695 -0.0026  0.1673
 9183S        S15987  11.191   6.245  21.986  0.1509 -0.1594 -0.0168
 9184S        S15988   1.998  12.087  20.580 -0.1114 -0.1029 -0.2080
 9185S        S15989  10.794  12.177  11.721 -0.2550 -0.3294 -0.2303
 9186S        S15990   4.306   0.389  16.752 -0.1885 -0.4277  0.2731
 9187S        S15991   3.529   8.128  30.497 -0.0371  0.8327  0.6911
 9188S        S15992  10.447   1.341  11.996 -0.1152 -0.3106 -0.3768
 9189S        S15993   0.679  10.249  17.258 -0.1688  0.0369  0.0078
 9190S        S15994   6.256   3.268  16.330  0.1334 -0.3735  0.3990
 9191S        S15995   0.642   7.729  29.808  0.3772 -0.5585  0.1574
 9192S        S15996   9.093   8.643  14.892  0.0705  0.2135  0.7534
 9193S        S15997   2.801   1.103  11.445 -0.0894 -0.0786 -0.0694
 9194S        S15998   9.823   2.703  22.572  0.1461 -0.3324 -0.1360
 9195S        S15999   4.877  12.271  12.670  0.2249 -0.1732  0.1345
 9196S        S16000   1.049   7.600  23.101 -0.2091  0.0527  0.1517
 9197S        S16001   8.927   3.788  13.316  0.2519 -0.0286 -0.2941
 9198S        S16002   0.283   0.789  21.374 -0.1433 -0.0328 -0.0874
 9199S        S16003   5.902   3.200  15.190  0.0776  0.0888 -0.5519
 9200S        S16004   3.731   5.273  20.867 -0.6016 -0.3900  0.0624
 9201S        S16005   3.768   8.192  25.955  0.0255 -0.0506  0.6359
 9202S        S16006   9.110   8.530  19.141  0.1774  0.1145 -0.1659
 9203S        S16007  10.288   1.761  12.818 -0.1880  0.1324  0.2396
 9204S        S16008   9.359  10.263  15.745  0.1590  0.6978  0.1399
 9205S        S16009   2.240  11.045  25.722  0.1960 -0.4858 -0.0486
 9206S        S16010   5.053   2.230  22.590 -0.3185  0.0189 -0.0462
 9207S        S16011   5.797   2.224   3.296 -0.0027 -0.1109  0.2423
 9208S        S16012   3.248   0.799  11.295  0.5971  0.1662 -0.1164
 9209S        S16013   1.705  11.670  24.901 -0.1120 -0.5724 -0.1516
 9210S        S16014   2.962   0.922  25.210 -0.0932 -0.2213 -0.3962
 9211S        S16015  10.225   7.874  23.357 -0.0526 -0.3308  0.0070
 9212S        S16016   8.620  10.029  25.898  0.4345  0.2771  0.0387
 9213S        S16017   1.347   8.146  21.729 -0.1750  0.1963 -0.4536
 9214S        S16018   3.909   3.500  19.415 -0.2733  0.4808  0.2836
 9215S        S16019   7.148   4.279  17.212  0.3666  0.5208 -0.7608
 9216S        S16020   2.933  10.083  23.442 -0.0222 -0.0154  0.8070
 9217S        S16021   3.160   6.363  29.245 -0.9210  0.0367  0.6237
 9218S        S16022   8.883   1.261  28.530  0.6153  0.2097  0.1488
 9219S        S16023  11.138   0.838  19.504  0.3685 -0.5775  0.2537
 9220S        S16024   3.932   5.255  14.624  0.4199  0.4342  0.1648
 9221S        S16025  11.457   3.299  16.251  0.3095  0.0196  0.4876
 9222S        S16026   9.261   5.971  22.662  0.1878  0.0533 -0.3039
 9223S        S16027   9.881   6.796  12.468  0.1012  0.2564 -0.1160
 9224S        S16028  11.591   2.150  19.636  0.2073  0.0762  0.1804
 9225S        S16029   3.500   8.533  12.946  0.5979 -0.3674 -1.1043
 9226S        S16030   7.231   3.146  17.259 -0.6099  0.3483 -0.2412
 9227S        S16031   3.943   0.756  22.200  0.8643 -0.1457 -0.3397
 9228S        S16032  11.261   1.755  13.888  0.1571  0.1073 -0.4760
 9229S        S16033   8.287  10.579  27.516  0.3321 -0.6158  0.1175
 9230S        S16034   0.342   7.684  10.923 -0.1294  0.1862  0.0594
 9231S        S16035   1.525   1.371  22.247 -0.1095  0.1914 -0.2059
 9232S        S16036   9.116   0.113  25.008  0.3639  0.4036 -0.2214
 9233S        S16037   2.058   3.131  23.614 -0.2905  0.1016  0.1345
 9234S        S16038   7.832  10.077  14.975  0.0933  0.1902  0.1960
 9235S        S16039   9.245  10.171  11.557 -0.1733 -0.4857 -0.0708
 9236S        S16040   7.369   4.250  11.926  0.0390  0.3656 -0.1393
 9237S        S16041  10.340   2.788  17.880  0.3620 -0.1883  0.1761
 9238S        S16042   0.437   4.639  14.215 -0.0026  0.1016  0.9466
 9239S        S16043   0.085  11.441  13.320 -0.3027  0.2306  0.4962
 9240S        S16044   1.591   7.409  30.288 -0.0752 -0.1266 -0.0167
 9241S        S16045   8.432  10.498   1.710 -0.1692  0.0740  0.2717
 9242S        S16046   8.297   0.658  26.744  0.1655  0.0243  0.2124
 9243S        S16047   7.421   7.201  42.863 -0.3602 -0.1078  0.2405
 9244S        S16048   7.555   8.263  18.050 -0.4400 -0.1164  0.1411
 9245S        S16049   1.702   8.941  13.526 -0.2034 -0.0090  0.4856
 9246S        S16050   9.210   5.803  25.356 -0.0002 -0.3752  0.1928
 9247S        S16051   0.889   0.488  22.891  0.1009  1.1414  0.3655
 9248S        S16052   2.921   1.038  26.676  0.3794 -0.9204 -0.1867
 9249S        S16053   5.378   9.275  14.486  0.0767  0.5104  0.1661
 9250S        S16054   1.797   7.013  17.363  0.4418  0.2259 -0.1550
 9251S        S16055   4.675   6.719  15.187 -0.0304  0.1504  0.0676
 9252S        S16056   3.927   4.621  16.015  0.1989 -0.1977  0.2455
 9253S        S16057   2.064   8.724  15.569  0.2633 -0.3404 -0.3364
 9254S        S16058   1.797   0.170  19.365 -0.3362  0.1577 -0.1370
 9255S        S16059   8.159   1.199  11.690  0.6221 -0.0301 -0.3898
 9256S        S16060   3.842  10.102  18.354  0.1737 -0.3103  0.1047
 9257S        S16061   1.094  11.819  22.846 -0.1718 -0.1192 -0.3969
 9258S        S16062   9.467  10.588  29.458 -0.5203  0.3642  0.5278
 9259S        S16063   8.567   0.101  30.873 -0.5918  0.0787 -0.1251
 9260S        S16064  11.677   2.083  26.553 -0.2221  0.4632  0.0688
 9261S        S16065   7.244   7.588  31.067  0.2336 -0.0401  0.3808
 9262S        S16066   0.330  10.864  25.632 -0.3228  0.1481 -0.3617
 9263S        S16067   3.390  10.937  18.725 -0.0929 -0.0235 -0.4578
 9264S        S16068  10.530  11.551  19.754 -0.1166  0.4002  0.0318
 9265S        S16069   7.653   5.754  13.254  0.2476  0.0473  0.0171
 9266S        S16070   9.017   7.515  13.297  0.0593  0.6261 -0.2477
 9267S        S16071   6.312   3.884  17.806 -0.1766 -0.3643  0.1205
 9268S        S16072  11.380   5.338  13.922 -0.1228  0.0338 -0.3981
 9269S        S16073   7.638   6.138  14.922  0.1216  0.0987 -0.1442
 9270S        S16074  11.713   6.887  18.821  0.2703  0.0342 -0.0488
 9271S        S16075   1.768   0.765  26.578  0.3375  0.1274  0.0887
 9272S        S16076   6.985   1.834  23.965 -0.2411 -0.0944  0.1016
 9273S        S16077   9.797   4.382  20.027 -0.0585  0.1245 -0.1240
 9274S        S16078   8.974   2.410  13.075 -0.1911  0.2954 -0.4463
 9275S        S16079   3.331  10.809  21.534  0.3464  0.0283  0.1888
 9276S        S16080   4.501   2.314  30.029  0.2747  0.3824 -0.4047
 9277S        S16081   8.207   8.131  26.543 -0.1284  0.1416  0.1074
 9278S        S16082   3.392   5.035  25.620 -0.0073  0.0193  0.0671
 9279S        S16083  10.506   6.056  20.072  0.0987  0.0141  0.2461
 9280S        S16084   6.681   9.944  13.854 -0.4601  0.1116 -0.8735
 9281S        S16085   2.197   0.728  24.126  0.6878 -0.3266 -0.3463
 9282S        S16086   7.450   6.137  21.185  0.2447 -0.2533  0.1586
 9283S        S16087   1.513   7.038  15.670  0.1179 -0.0064  0.4254
 9284S        S16088   6.347   7.153  17.199  0.3570 -0.7354  0.0393
 9285S        S16089   2.178  11.208  28.515  0.2825 -0.4797 -0.0991
 9286S        S16090  11.826   9.101  29.451  0.4978 -0.3495 -0.1031
 9287S        S16091   5.500  11.536  23.479 -0.1316 -0.0310 -0.1822
 9288S        S16092  11.673  10.643  24.744  0.3088  0.3185 -0.4205
 9289S        S16093   2.932   1.110  23.657 -0.3680  0.0009 -0.3436
 9290S        S16094  10.212   4.487  16.214  0.1620  0.2465 -0.3738
 9291S        S16095   7.402   2.203  24.528  0.0478  0.5169 -0.4820
 9292S        S16096   7.389   3.831  17.936 -0.2144 -0.0754 -0.1618
 9293S        S16097   6.702   3.080  17.797 -0.2897 -0.0857  0.5249
 9294S        S16098   9.818   3.912  19.242  0.4149  0.0386 -0.2758
 9295S        S16099   8.600   9.978  11.368 -0.0707 -0.0754 -0.1440
 9296S        S16100   5.439   2.061  30.817  0.6749 -0.1870 -0.5823
 9297S        S16101   3.279   9.525  18.679 -0.3049 -0.1514 -0.7150
 9298S        S16102   6.639   8.810  17.943  0.1633  0.1403 -0.4223
 9299S        S16103   2.480  11.347  31.558 -0.1872  0.0228 -0.5160
 9300S        S16104   2.158   2.346  28.220  0.2758  0.2322 -0.5006
 9301S        S16105   5.977   8.862  11.865  0.5654 -0.1883  0.0121
 9302S        S16106   9.178   0.956  13.633  0.0860 -0.2960 -0.3493
 9303S        S16107   3.704   2.113  13.410  0.1849 -0.1703 -0.3411
 9304S        S16108   8.901   8.386  17.681 -0.1431  0.2892  0.4248
 9305S        S16109   2.935   0.886  28.387  0.2876  0.4639  0.4289
 9306S        S16110   6.129   1.249  24.058 -0.4378  0.3541  0.2784
 9307S        S16111  10.168   5.617  23.102 -0.2308  0.0986  0.1675
 9308S        S16112   3.374   3.135  31.224  0.4852  0.4159  0.5198
 9309S        S16113   6.100  10.739  28.474 -0.0677  0.2056  0.4734
 9310S        S16114  10.877   9.470  17.191  0.1653  0.5856  0.1478
 9311S        S16115  10.493   4.142  18.103  0.1899 -0.2114  0.0699
 9312S        S16116   0.050   3.369  19.922 -0.4727  0.4921  0.6572
 9313S        S16117   0.062   1.012  11.893  0.6515 -0.5345  0.2319
 9314S        S16118   2.177  11.334  24.455  0.1951  0.2774  0.1505
 9315S        S16119   3.145   7.955  20.064  0.2722 -0.7412 -0.0198
 9316S        S16120   6.998   0.055  22.439 -0.2269  0.0065  0.1913
 9317S        S16121  10.763   4.908  25.943  0.3529  0.3673  0.1594
 9318S        S16122   6.009   7.089  27.186 -0.0912 -0.2695 -0.6395
 9319S        S16123   1.229   8.331  14.978 -0.2125  0.1126  0.0397
 9320S        S16124   6.582   4.290  24.168  0.1119  0.2242  0.0943
 9321S        S16125   5.312  10.042   9.171  0.0166  0.4786 -0.1341
 9322S        S16126   7.589  11.400  16.582 -0.1129  0.0365 -0.0697
 9323S        S16127   6.925   4.772  11.925 -0.2218  0.2973 -0.0724
 9324S        S16128   6.856   2.147  22.946  0.2232 -0.0106 -0.2221
 9325S        S16129   8.021   3.505  12.071 -0.5278 -0.2133 -0.0487
 9326S        S16130   5.353   5.526  14.401  0.2072  0.4034 -0.4042
 9327S        S16131  10.016   9.742  22.941 -0.1879 -0.0002 -0.5561
 9328S        S16132  10.558   7.534  19.094 -0.3426 -0.4129 -0.8230
 9329S        S16133   3.691   9.293  15.958  0.3205  0.4440 -0.2524
 9330S        S16134   9.739   8.033  28.269 -0.2639 -0.4463 -0.5092
 9331S        S16135  11.509  10.783  26.386 -0.1751 -0.0774  0.2510
 9332S        S16136  11.044   4.251  11.578  0.5398 -0.4362  0.3217
 9333S        S16137   8.241  10.244  18.885 -0.2806  0.0315 -0.1069
 9334S        S16138   6.680   0.584  15.396  0.1703 -0.4758  0.3681
 9335S        S16139   8.869   8.740  16.950  0.5680  0.2635 -0.2345
 9336S        S16140   7.556   4.771  17.805  0.1584  0.0922  0.1071
 9337S        S16141   6.574  11.889  26.368  0.0080 -0.2838 -0.0164
 9338S        S16142  10.955   6.747  17.164 -0.2541  0.0231  0.0462
 9339S        S16143   2.138   0.545  16.117  0.2097  0.5468  0.0221
 9340S        S16144  11.044   3.336  14.537  0.2724  0.0582  0.1350
 9341S        S16145   3.174   1.521  26.105 -0.1158 -0.3539 -0.5120
 9342S        S16146   5.401   5.082  11.555  0.4242  0.2221  0.0086
 9343S        S16147   9.944   2.526  19.230 -0.2226 -0.4384 -0.0625
 9344S        S16148  11.414  10.271  16.760  0.2793  0.1694 -0.3966
 9345S        S16149   6.781   5.293  20.315  0.3769 -0.1233  0.0290
 9346S        S16150   7.911   4.443  21.230  0.3362  0.1210  0.1315
 9347S        S16151   9.662   8.431  19.016  0.2028  0.2758  0.7162
 9348S        S16152   3.686   5.944  16.962 -0.1157 -0.3320 -0.3080
 9349S        S16153   8.662   1.689  13.280  0.1600 -0.0471  0.2325
 9350S        S16154  12.311  10.124  15.950  0.1310  0.2367 -0.3736
 9351S        S16155  11.986   6.613  13.987  0.2418  0.1311  0.1416
 9352S        S16156   2.994   4.909  13.712 -0.2320 -0.2063  0.0562
 9353S        S16157   0.806   8.895  47.058 -0.0242  0.3144  0.1145
 9354S        S16158   7.597   0.278  12.067  0.2776  0.3624 -0.2623
 9355S        S16159  10.108  10.581  18.199 -0.0078 -0.4286  0.9304
 9356S        S16160   3.931   9.935  16.875  0.3776 -0.1294 -0.1228
 9357S        S16161  10.400   5.076  29.157  0.0111  0.2582 -0.0104
 9358S        S16162   0.653   3.028  12.682  0.5276  0.0262  0.1657
 9359S        S16163   8.289   3.630  29.642 -0.0341  0.4842  0.0513
 9360S        S16164   4.213   5.457  15.615 -0.1901 -0.0645 -0.5791
 9361S        S16165   0.015   2.369  29.300  0.3563 -0.4513 -0.4386
 9362S        S16166   6.377   9.682  16.545  0.2895  0.7080  0.2373
 9363S        S16167   4.262   5.876  23.394 -0.2578  0.5319  0.2143
 9364S        S16168   0.823   3.705  24.802 -0.3410  0.1210 -0.7740
 9365S        S16169   1.006   7.865  29.515  0.3956 -0.3638  0.6107
 9366S        S16170   7.712  11.864  25.768  0.1176 -0.4202  0.2952
 9367S        S16171   7.385   0.018  29.867  0.2337 -0.2056  0.3710
 9368S        S16172   4.202   1.308  25.506  0.2834  0.3769 -0.0942
 9369S        S16173   3.276   3.760  11.753 -0.1518 -0.3306 -0.1068
 9370S        S16174   8.455   8.087  27.939 -0.4600  0.1556  0.3874
 9371S        S16175   6.037   7.645  20.591 -0.3162  0.1357 -0.3060
 9372S        S16176   2.742   9.852  18.128 -0.5073  0.2379  0.0744
 9373S        S16177   5.455  12.048  28.923  0.2774 -0.1058 -0.4955
 9374S        S16178   1.777   8.541  29.814 -1.2332  0.4601  0.3467
 9375S        S16179   9.230   2.434  23.692  0.1320 -0.6016  0.0897
 9376S        S16180   9.529  11.853  12.831  0.1426  0.7674 -0.1556
 9377S        S16181   5.480  11.117  14.806  0.2645  0.2904  0.1288
 9378S        S16182   1.105   1.421  16.839 -0.3371 -0.5587 -0.3930
 9379S        S16183   1.730   2.221  32.978 -0.1314  0.5656 -0.3038
 9380S        S16184  12.050   7.154  21.460  0.5018 -0.5463  0.6162
 9381S        S16185   5.005   3.493  33.225 -0.1413  0.5579  0.2978
 9382S        S16186   8.216   1.759  13.597  0.0389  0.0674  0.3863
 9383S        S16187   3.203   6.153  49.048 -0.6163  0.1172  0.8609
 9384S        S16188  10.330   6.102  31.481  0.2189 -0.5390  0.1357
 9385S        S16189   7.651   2.420  29.996 -0.1159 -0.2371 -0.2368
 9386S        S16190   6.100   8.789  21.232  0.6247  0.1551  0.4318
 9387S        S16191   6.594   5.124  27.988 -0.3719  0.1759 -0.7157
 9388S        S16192   6.950   4.122  15.681 -0.7679 -0.3963 -0.0788
 9389S        S16193   1.410  11.732  19.793  0.0686 -0.2808 -0.1956
 9390S        S16194   0.349   3.572  13.246  0.3778  0.1870  0.3045
 9391S        S16195   6.225   3.783  24.287 -0.4032 -0.3148  0.3654
 9392S        S16196   2.164   7.018  18.979  0.1337  0.1809  0.1532
 9393S        S16197   3.360   9.683  32.010  0.1797 -0.6787 -0.3502
 9394S        S16198   0.147   8.490  26.638  0.4460 -0.2629 -0.2794
 9395S        S16199   4.079  10.431  18.671 -0.1938 -0.1552 -0.2943
 9396S        S16200  10.631   5.028  27.990  0.0849 -0.1182 -0.2676
 9397S        S16201   7.579   2.872  15.734 -0.0875  0.6428  0.0269
 9398S        S16202  11.720   1.511  13.853 -0.1725  0.2036 -0.1070
 9399S        S16203   2.818  10.708  28.415  0.2501  0.2423  0.1364
 9400S        S16204   2.475   9.373  24.355  0.2728 -0.1124  0.4246
 9401S        S16205   6.459   2.117  21.303  0.3973 -0.6456 -0.2289
 9402S        S16206   4.382   4.323  23.194 -0.1044 -0.0775  0.3345
 9403S        S16207   3.010   7.085  23.049  0.1672  0.1860 -0.0801
 9404S        S16208   5.160   8.876  20.507 -0.1272 -0.2215  0.4109
 9405S        S16209   8.974   0.378  31.136  0.0519  0.0135 -0.4012
 9406S        S16210   5.580  10.836  29.885  0.0595 -0.0864  0.6874
 9407S        S16211  10.407   7.731  21.835 -0.1659  0.2675 -0.1387
 9408S        S16212   2.260   9.529  28.323  0.0851  0.7501 -0.7477
 9409S        S16213  11.456   7.277  18.490  0.4676  0.3367  0.0490
 9410S        S16214   7.236   7.218  21.078  0.3678 -0.1344 -0.0293
 9411S        S16215  10.293  12.077  11.421 -0.3253 -0.4993 -0.0954
 9412S        S16216  10.692   6.778  17.615  0.0639 -0.1789 -0.7891
 9413S        S16217   9.620   2.762  23.549 -0.2383 -0.1854  0.2934
 9414S        S16218   6.192   3.519  26.143  0.1442  0.0748 -0.4006
 9415S        S16219   1.066   9.416  22.308  0.3013  0.2408  0.1815
 9416S        S16220   7.042   9.318  14.090  0.2121  0.1431 -0.2720
 9417S        S16221   8.551  10.662  23.140 -0.2072  0.3181 -0.2924
 9418S        S16222   3.247   9.733  19.579 -0.5471  0.0358 -0.5074
 9419S        S16223   4.471   4.872  23.224 -0.5333  0.0425 -0.6141
 9420S        S16224   2.503   4.596  27.771 -0.1392  0.0005 -0.3595
 9421S        S16225   4.973   8.901  31.340 -0.2535  0.2813  0.1190
 9422S        S16226   5.723   0.913  25.550  0.2386 -1.0066 -0.6075
 9423S        S16227  12.095   0.664  12.173 -0.0283  0.0453 -0.0817
 9424S        S16228   1.440   2.230  26.121 -0.1478  0.3168  0.2804
 9425S        S16229   1.052   5.732  24.333  0.4159 -0.0219  0.1840
 9426S        S16230  11.313   7.865  27.726 -0.0858  0.4740  0.1800
 9427S        S16231   8.900   8.316  28.009 -0.1524  0.3582 -0.4574
 9428S        S16232   6.173   0.592  30.366  0.3268 -0.6943 -0.1550
 9429S        S16233  10.776   0.627  15.258 -0.0607  0.2043  0.0475
 9430S        S16234   2.168   4.008  33.319  0.2874 -0.2267  1.0442
 9431S        S16235   7.080  10.390  21.034  0.1680  0.2384 -0.1254
 9432S        S16236   7.114   2.642  25.488 -0.7027 -0.1329  0.3181
 9433S        S16237   2.860   7.500  29.971  0.0922 -0.4106  0.3632
 9434S        S16238   0.992   9.132  18.726  0.1129  0.6817  0.0144
 9435S        S16239  11.055   0.884  17.657  0.0593  0.4067  0.0092
 9436S        S16240   2.994   2.559  14.034  0.2831 -0.2492  0.6293
 9437S        S16241   0.786   3.230  13.499 -0.1448  0.3265 -0.2120
 9438S        S16242   0.755   9.187  16.935  0.2901  0.1181 -0.3255
 9439S        S16243   4.593  10.108  28.454 -0.0675  0.3182 -0.3317
 9440S        S16244   6.989   4.687  23.532 -0.2826 -0.3484  0.1153
 9441S        S16245   3.146   1.442  22.124  0.0484 -0.2053  0.3842
 9442S        S16246  11.379   1.961  18.709  0.2915  0.1079 -0.0851
 9443S        S16247   8.872   6.172  12.011 -0.2330 -0.0485  0.2440
 9444S        S16248   8.771   1.339  31.430 -0.4045 -1.0362 -0.1989
 9445S        S16249   2.200   6.531  25.354  0.2506 -0.3029  1.1272
 9446S        S16250   7.137  11.602  23.536  0.4350  0.0400  0.3651
 9447S        S16251   0.018   2.452  11.609  0.4109 -0.0194 -0.1021
 9448S        S16252   6.749   9.822  24.810  0.0334  0.2111  0.0215
 9449S        S16253  11.969   2.331  31.400  0.0768  0.2711  0.0265
 9450S        S16254   3.029   2.091  30.144 -0.0377  0.3175  0.2396
 9451S        S16255  12.330   6.210  17.794  0.5637 -0.1331  0.0388
 9452S        S16256   0.023  12.155  18.678  0.0543 -0.1240  0.4921
 9453S        S16257   8.998   8.627  20.470 -0.3209 -0.6370  0.4582
 9454S        S16258   0.253   1.135  28.613  0.2790 -0.7172  0.2256
 9455S        S16259  10.576  10.087  28.543 -0.0389  0.0882  0.0873
 9456S        S16260   5.313   5.584  22.799 -0.6108  0.3910  0.8403
 9457S        S16261   2.636   8.244  19.423 -0.5019  0.0014 -0.1115
 9458S        S16262   0.701   5.242  12.819  0.1951 -0.1012 -0.3948
 9459S        S16263   9.943   6.592  16.082 -0.0526 -0.0501  0.3049
 9460S        S16264   4.298  12.075  32.718  0.3423  0.7369 -0.5502
 9461S        S16265   5.353   2.414  22.002  0.2192 -0.2750  0.9106
 9462S        S16266   9.088   5.107  12.896 -0.3363  0.3435  0.2471
 9463S        S16267  11.947  11.369  16.331 -0.0867  0.2423  0.1479
 9464S        S16268  11.352   6.702  24.845 -0.3395  0.0051  0.2769
 9465S        S16269  12.218   2.252  24.174  0.4211  0.0281  0.2723
 9466S        S16270   3.830   2.117  31.130 -0.0373 -0.2228  0.2864
 9467S        S16271  10.621   4.620  28.907 -0.3036  0.2588  0.4988
 9468S        S16272   9.722   8.267  25.522 -0.2176 -0.6802  0.5657
 9469S        S16273   5.067   4.297  12.760 -0.1782  0.0790  0.1091
 9470S        S16274   1.989  11.585  20.991  0.4777 -0.0301  0.3313
 9471S        S16275   5.164  12.340  20.151 -0.0434 -0.1467 -0.0386
 9472S        S16276   6.992  12.300  26.983 -0.0358 -0.2112  0.4979
 9473S        S16277   0.466  11.149  15.299  0.4360  0.5782 -0.3548
 9474S        S16278   2.880  10.760  19.222 -0.0236  0.0523  0.0927
 9475S        S16279   1.409   6.930  16.172 -0.4202 -0.0644  0.2629
 9476S        S16280   0.669   3.464  14.588  0.1531  0.2552  0.1291
 9477S        S16281   3.813  12.243  12.845 -0.2131  0.1777  0.3738
 9478S        S16282   4.301   6.095  30.638  0.2536  0.1239  0.3162
 9479S        S16283   9.873   1.818  27.507 -0.0624  0.4823 -0.1854
 9480S        S16284   7.699   7.237  22.358  0.0727  0.0795  0.8252
 9481S        S16285   5.232  10.398  26.391 -0.1525  0.2796  0.1157
 9482S        S16286   8.976  11.073  15.041  0.0801 -0.2318 -0.1626
 9483S        S16287   8.930   0.749  26.622 -0.3558 -0.3133 -0.0615
 9484S        S16288  11.971  11.928  12.149  0.3095  0.1749 -0.3858
 9485S        S16289   0.817   0.319  22.420  0.3238 -0.0510  0.0676
 9486S        S16290   8.589   9.396  26.592  0.4923  0.0289 -0.2987
 9487S        S16291  11.346   9.984  11.193 -0.1519 -0.3023  0.2459
 9488S        S16292   5.227   5.263  13.914 -0.3500  0.1978  0.7065
 9489S        S16293   2.868  10.231  25.649  0.0428  0.4407 -0.5960
 9490S        S16294  10.847   8.378  12.232 -0.3385  0.3327  0.0326
 9491S        S16295   3.124   6.480   6.626  0.0936  0.3695  0.2456
 9492S        S16296   3.497  10.263  13.507 -0.2023 -0.5914 -0.7702
 9493S        S16297   7.034   0.263  14.185  0.0544  0.1519 -0.5448
 9494S        S16298   2.402   4.461  28.643  0.3525 -0.9215 -0.4230
 9495S        S16299   8.835   5.385  22.029 -0.4209 -0.0381  0.0290
 9496S        S16300   8.943   2.307  28.790  0.2572 -0.1206 -0.0808
 9497S        S16301  11.539   2.593  15.804  0.0075 -0.0352  0.1807
 9498S        S16302   3.710   4.536   7.568 -0.0437  0.1504 -0.7283
 9499S        S16303   3.467  11.836  23.286 -0.3549 -0.2485 -0.7826
 9500S        S16304   1.038   0.589  32.376  0.3370  0.1129  0.2255
 9501S        S16305   1.582  10.274  12.124 -0.0245 -0.2450  0.0154
 9502S        S16306   1.136   2.877  22.329 -0.0215  0.1011 -0.1427
 9503S        S16307  10.740   3.238  26.731 -0.2787 -0.2897  0.1269
 9504S        S16308   4.663   0.151  14.020 -0.2135 -0.6086 -0.4530
 9505S        S16309   6.873   7.498  22.754 -0.5089 -0.0443 -0.1568
 9506S        S16310   6.429   0.780  14.181 -0.2697  0.1154 -0.1246
 9507S        S16311   5.169   4.128  17.548  0.4239 -0.2170 -0.5277
 9508S        S16312   1.221   8.722  12.519  0.1096  0.2085 -0.2436
 9509S        S16313   6.996   0.953  28.469  0.1432  0.2648 -0.8322
 9510S        S16314  10.438   4.195  15.137  0.3513  0.4570  0.1868
 9511S        S16315   8.101  11.168  11.824 -0.5175  0.1305 -0.5154
 9512S        S16316   7.653   3.797  31.436 -0.3595  0.3107 -0.2918
 9513S        S16317   3.045  11.967  24.825  0.4948  0.1290  0.3825
 9514S        S16318   2.645   1.816  17.115 -0.0491 -0.2884  0.0226
 9515S        S16319   7.451   7.952  17.454  0.3039  0.3866 -0.4459
 9516S        S16320   0.995  10.067  15.422  0.2121 -0.1666  0.4041
 9517S        S16321   2.869   0.859  30.410  0.5757 -0.1917 -0.3477
 9518S        S16322   2.824   6.543  30.894  0.1117  0.2137 -0.5876
 9519S        S16323   0.214   3.557  29.467 -0.2259  0.0363  0.0873
 9520S        S16324   4.731   0.982  27.697  0.3377  0.0249  0.0557
 9521S        S16325  10.872   7.668  12.303  0.0736 -0.4976  0.2195
 9522S        S16326   3.325   8.710  14.925 -0.2122 -0.2512  0.0637
 9523S        S16327   8.947  10.754  11.412 -0.3773  0.0363 -0.0177
 9524S        S16328   7.145   3.699  17.421 -0.5631 -0.1990 -0.4576
 9525S        S16329   7.934   3.538  44.881 -0.1779  0.0837  0.0571
 9526S        S16330  10.259   6.463  11.726  0.3482  0.0532 -0.0650
 9527S        S16331   6.796   6.719  16.851 -0.2299 -0.4275  0.1747
 9528S        S16332  10.279   6.274  13.501  0.6457  0.4112 -0.3830
 9529S        S16333   0.232   1.726  27.693 -0.3357 -0.1342 -0.1785
 9530S        S16334  10.762   4.033  22.995  0.3077 -0.3514  0.2803
 9531S        S16335   8.493   6.053  29.306 -0.6439 -0.0769  0.0850
 9532S        S16336   2.827   0.432  14.848 -0.6748 -0.3831 -0.3622
 9533S        S16337  10.660   7.166  12.202 -0.4558  0.1547  0.2714
 9534S        S16338   4.872  10.661  23.702 -0.3326  0.2699 -0.0707
 9535S        S16339  11.485   5.990  24.507 -0.0682  0.5238  0.2341
 9536S        S16340   3.145   1.080  29.931  0.2339  0.0341  0.2362
 9537S        S16341  10.412  11.070  19.675 -0.3465  0.1941 -0.1574
 9538S        S16342   1.741   7.482  15.501  0.3145  0.5633 -0.2930
 9539S        S16343   4.207   9.028  29.555 -0.0846  0.0358  0.3227
 9540S        S16344   0.947   6.135  11.486  0.0719  0.5012  0.3154
 9541S        S16345   1.859   7.740  21.097 -0.2170 -0.1119 -0.1905
 9542S        S16346   3.428   1.510  19.913  0.6877  0.3263  0.1558
 9543S        S16347   5.593   9.975  29.188  0.2522 -0.5088 -0.4614
 9544S        S16348   0.531   5.960  13.592  0.1754 -0.2517 -0.5586
 9545S        S16349   4.119   3.182  22.520  0.0456 -0.8162  0.1199
 9546S        S16350   3.942   0.505  13.433 -0.6984 -0.0189  0.0143
 9547S        S16351   7.471   8.598  27.014 -0.4213  0.7136  0.2877
 9548S        S16352  10.908   7.237  12.674  0.0441 -0.0345  0.2465
 9549S        S16353   9.767   5.620  11.708  0.1904  0.1517 -0.3406
 9550S        S16354   2.328  11.154  13.896  0.2423  0.5204 -0.0190
 9551S        S16355   3.080   7.525  31.677  0.2849  0.0590 -0.2883
 9552S        S16356   7.410   9.758  30.639  0.5160 -0.2882 -0.5890
 9553S        S16357   5.192   5.035  19.657  0.0154  0.2769 -0.2646
 9554S        S16358   4.508   0.431  19.954 -0.0815 -0.1655 -0.4044
 9555S        S16359   9.926   6.572  24.563  0.5487  0.2020  0.2471
 9556S        S16360  10.441   5.392  11.243 -0.2197  0.1275 -0.4469
 9557S        S16361   5.872   4.068  23.405  0.8117  0.0634  0.3965
 9558S        S16362   8.386   5.599  20.067 -0.0381  0.1738  0.0590
 9559S        S16363  11.363   4.820  14.096 -0.5253 -0.3046 -0.1071
 9560S        S16364   2.770   0.260  18.512 -0.2618 -0.0441 -0.2615
 9561S        S16365  10.314  10.158  25.251 -0.5721 -0.4030  0.3500
 9562S        S16366   3.188  11.293  27.509 -0.2234  0.6969 -0.1030
 9563S        S16367   6.287   0.926  21.487 -0.1901  0.2476  0.2354
 9564S        S16368   9.241  11.711  14.427 -0.3379 -0.5057 -0.1225
 9565S        S16369   6.411   3.800  28.258 -0.1474  0.6017  0.1137
 9566S        S16370   9.533   2.302  22.102 -0.0725  0.2445 -0.0306
 9567S        S16371  12.000   9.853  25.876 -0.5379 -0.2884  0.0231
 9568S        S16372  10.511   8.255  27.317  0.0456  0.2152 -0.1556
 9569S        S16373   4.858   9.975  16.834  0.3644  0.0701 -0.0447
 9570S        S16374   7.559  10.352  15.673 -0.5177 -0.0870  0.0981
 9571S        S16375   2.269   1.213  19.016 -0.1230  0.1163 -0.0999
 9572S        S16376   7.502   8.411  29.355  0.6919 -0.5665  0.1226
 9573S        S16377   3.195   0.848  29.437  0.1711  0.0790  0.2118
 9574S        S16378   4.337   9.167  28.933 -0.5508 -0.4192  0.2444
 9575S        S16379   5.167   4.604  19.285 -0.0925 -0.0509  0.0841
 9576S        S16380   4.714   3.257  19.220 -0.1139 -0.3940 -0.0318
 9577S        S16381   6.353   0.978  29.874 -0.2014  0.0521 -0.1886
 9578S        S16382   1.702   9.973  24.576 -0.0003  0.0703 -0.4312
 9579S        S16383   6.046  10.746  39.589 -0.5699  0.3326  0.2148
 9580S        S16384   7.708   2.007  13.872 -0.0691  0.0610  0.1502
 9581S        S16385   1.194   0.859  23.136  0.2946  0.1379 -0.6128
 9582S        S16386   3.312   5.935  24.449  0.5396 -0.2977 -0.6708
 9583S        S16387   4.542  11.982  14.138 -0.0614 -0.5934  0.3846
 9584S        S16388   4.715   9.797  18.145 -0.1231  0.1591  0.4923
 9585S        S16389   3.429   1.169  30.741  0.5268 -0.5276  0.1877
 9586S        S16390  11.087   9.947  20.534  0.0870 -0.1232 -0.4661
 9587S        S16391   7.590   4.654  22.129 -0.3263 -0.2740  0.1506
 9588S        S16392   1.332   9.736  28.125  0.6751  0.5210  0.1919
 9589S        S16393   8.023   2.339  28.106 -0.4021  0.0119  0.1461
 9590S        S16394   5.552   9.488  30.573 -0.0007 -0.1876 -0.0521
 9591S        S16395   3.641  11.787  14.592 -0.2910 -0.1160 -0.5345
 9592S        S16396   6.756  12.211  25.918 -0.6490  0.5488  0.5182
 9593S        S16397   2.343   2.346  15.956 -0.2003  0.7193 -0.1741
 9594S        S16398   3.697   8.284  15.967  0.8660  0.3063  0.3412
 9595S        S16399   7.874   6.071  20.911  0.0160  0.0348 -0.4362
 9596S        S16400   1.020   4.204  23.744 -0.0786  0.3675 -0.4033
 9597S        S16401   7.470   8.356  14.488  0.2102 -0.5556 -0.5061
 9598S        S16402   9.664   0.148  26.436 -0.1983  0.3056 -0.0771
 9599S        S16403   3.300   5.079  18.198 -0.1024  0.2685 -0.1887
 9600S        S16404   6.907   7.089  21.478  0.1343  0.2192 -0.2711
 9601S        S16405   7.130   0.892  25.692 -0.1370  0.1838 -0.2968
 9602S        S16406   2.471   1.720  27.976 -0.2920  0.1040  0.1836
 9603S        S16407   8.566  11.538  25.821  0.1225 -0.0640 -0.0239
 9604S        S16408   8.609   8.224  20.886  0.2256  0.1974  0.1576
 9605S        S16409  10.954   6.022  27.021  0.0683 -0.4091  0.1819
 9606S        S16410  12.186   3.564  16.749 -0.1903  0.1391 -0.2965
 9607S        S16411  10.952   5.780  20.039  0.0044 -0.2337  0.1938
 9608S        S16412   4.071   1.261   7.567 -0.1267  0.2850  0.2973
 9609S        S16413   7.324   1.021  26.235  0.3453 -0.4047 -0.0308
 9610S        S16414   6.652   7.169  23.231 -0.1610 -0.0870  0.2672
 9611S        S16415   9.276   4.486  30.332  0.5707  0.4910  0.0942
 9612S        S16416  10.598   6.068  29.692  0.4131  0.5063 -0.2975
 9613S        S16417   9.388   5.237  11.572  0.2629 -0.0484 -0.1721
 9614S        S16418   7.843   6.043  10.919  0.3152  0.0545 -0.0653
 9615S        S16419  10.828   0.287  16.324 -0.1536  0.8154  0.1426
 9616S        S16420  11.604   1.428  20.588  0.2003  0.7308  0.1995
 9617S        S16421   4.322   6.099  23.894  0.0599  0.3504  0.3607
 9618S        S16422   8.275  10.544  21.267 -0.5304 -0.0191 -0.3777
 9619S        S16423   1.741  10.262  26.899  0.0064 -1.0137 -0.4722
 9620S        S16424   2.792   8.081  20.417  0.0198  0.2593 -0.1331
 9621S        S16425   4.540   1.059  27.197  0.0796  0.1380  0.3935
 9622S        S16426   0.050   8.219  17.205 -0.0249  0.6102 -0.3150
 9623S        S16427   6.072   6.362  19.032  0.1670 -0.1505 -0.3292
 9624S        S16428  11.076   5.981  12.167 -0.2629 -0.2245  0.2397
 9625S        S16429   4.435   8.571  24.704  0.0193 -0.4513  0.1448
 9626S        S16430   2.596   2.917  24.478 -0.7188 -0.0851  0.1315
 9627S        S16431   3.559  10.534  11.309  0.0833 -0.1727 -0.0497
 9628S        S16432  11.869   1.937  11.633  0.0655  0.1120  0.0834
 9629S        S16433  11.437   3.424  18.202  0.0043  0.0180  0.2213
 9630S        S16434   9.477   4.430  24.878  0.4427  0.3760 -0.3843
 9631S        S16435   7.545   5.109  19.986 -0.1716  0.5078 -0.1060
 9632S        S16436   9.238   6.566  22.984 -0.5530  0.7259  0.4364
 9633S        S16437   8.415  11.143  13.056  0.0992  0.2132  0.0434
 9634S        S16438  12.008   1.609  25.782 -0.0624  0.3269  1.1720
 9635S        S16439   4.017   7.344  17.569 -0.3583  0.1627  0.2101
 9636S        S16440   4.710   6.185  17.579  0.1089 -0.0980 -0.8491
 9637S        S16441   6.525   9.384  25.488  0.1686  0.3813  0.0959
 9638S        S16442   4.561   6.923  28.752 -0.4461 -0.2255 -0.2674
 9639S        S16443   2.359   4.840  17.088  0.5133 -0.0780 -0.0543
 9640S        S16444  10.965   5.646  16.065 -0.3575 -0.1570  0.0475
 9641S        S16445   9.039   0.369  18.450  0.0954  0.2861  0.4304
 9642S        S16446   9.050   7.740  16.813  0.2099  0.1692  0.0998
 9643S        S16447   8.220   0.330  18.706 -0.2106  0.3381 -0.2764
 9644S        S16448   1.710   7.853  20.077 -0.0238  0.0472  0.3257
 9645S        S16449   3.596   1.560  27.108 -0.2111 -0.1207 -0.2612
 9646S        S16450   6.132  11.018  16.783  0.4745 -0.1179 -0.2481
 9647S        S16451   0.754   8.628  31.208 -0.0130  0.2325  0.2249
 9648S        S16452   1.872   5.366  27.958  0.4909 -0.0160  0.2184
 9649S        S16453   6.967  10.724  32.510  0.4723  0.3459  0.3485
 9650S        S16454   4.736   2.162   7.608 -0.1401 -0.1672  0.1148
 9651S        S16455   7.769   1.248  15.243  0.2237  0.3955 -0.0421
 9652S        S16456   9.099   3.083  16.441 -0.1974  0.1948  0.1058
 9653S        S16457  10.701   7.489  10.940 -0.4098  0.3476 -0.2899
 9654S        S16458   8.237   0.245  26.088 -0.2867  0.1883 -0.0092
 9655S        S16459   1.594   0.333  13.457  0.0808 -0.3892  0.0151
 9656S        S16460   9.890   0.355  31.649 -0.4363 -0.3618  0.0025
 9657S        S16461   1.140  11.764  27.601 -0.5386  0.7914 -0.0415
 9658S        S16462  10.642   4.728  18.544  0.0345  0.3089  0.2115
 9659S        S16463  11.871   4.496  22.310  0.8236  0.4778  0.1934
 9660S        S16464   2.545   3.031  22.736 -0.5923 -0.0309  0.2196
 9661S        S16465   9.167   6.376  11.620  0.2464 -0.2183 -0.0610
 9662S        S16466   3.227   1.314  27.319  0.2346  0.8387 -0.0383
 9663S        S16467   5.507   3.483  22.076  0.1037 -0.3540  0.2018
 9664S        S16468   8.619   4.957  29.032 -0.8435 -0.0399  0.0218
 9665S        S16469   4.190   4.721  21.787 -0.2540 -0.1686 -0.1133
 9666S        S16470  11.423   4.675  30.896 -0.1666  0.3657 -0.0935
 9667S        S16471   8.292   3.185  29.899  0.5263  0.0151 -0.4578
 9668S        S16472   9.799   9.020   4.634 -0.4667 -0.3140 -0.0978
 9669S        S16473   8.629   2.174  30.031 -0.4603  0.2818 -0.3543
 9670S        S16474   7.421   5.133  16.958 -0.1912  0.2701  0.4834
 9671S        S16475   4.261   8.342  44.891 -0.4406  0.2553  0.2208
 9672S        S16476  10.913  11.607  22.012 -0.0960 -0.3781  0.1733
 9673S        S16477   3.357   6.843   9.649  0.4945 -0.4360 -0.1691
 9674S        S16478   9.168  12.139  30.049  0.2267  0.2825  0.0556
 9675S        S16479   8.504   3.856  18.920 -0.2846 -0.0457 -0.1583
 9676S        S16480   7.570   2.344  13.569  0.0248 -0.1435  0.2742
 9677S        S16481   9.593   8.150  21.239 -0.2469  0.2452 -0.0620
 9678S        S16482   4.131  11.913  28.392 -0.5952 -0.0430 -0.5143
 9679S        S16483   9.724   6.797  26.219  0.3979 -0.3359 -0.1270
 9680S        S16484   7.788   0.629  23.608  0.2709 -0.1854 -0.1229
 9681S        S16485  11.103   8.636  21.823  0.0318 -0.0776  0.4599
 9682S        S16486  10.564   8.789  12.002 -0.0828 -0.1120 -0.1612
 9683S        S16487   0.549   8.728  17.342  0.0715 -0.1903 -0.1205
 9684S        S16488   0.414   9.870  19.141  0.1837  0.5021 -0.0582
 9685S        S16489   4.360   3.284  30.736  0.0845  0.2002 -0.0487
 9686S        S16490   8.641   6.585  18.777  0.0543 -0.3024  0.1518
 9687S        S16491  11.958   3.273  26.732  0.0671 -0.3203  0.0955
 9688S        S16492   0.852  10.255  22.982 -0.1243 -0.0503  0.1956
 9689S        S16493   2.417   8.890  18.076 -0.0887 -0.1940 -0.1987
 9690S        S16494   4.791   3.610  20.766 -0.0650  0.7496 -0.1618
 9691S        S16495   4.148   7.793  19.756 -0.2562 -0.0298  0.1264
 9692S        S16496   6.256   1.138  29.377 -0.5649 -0.7418 -0.1625
 9693S        S16497   9.585   0.422  24.879 -0.3286  0.0547  0.4759
 9694S        S16498  10.998   6.562  25.427  0.7615 -0.2588  0.4693
 9695S        S16499   1.226   9.212  20.106  0.2430 -0.3251 -0.3609
 9696S        S16500   2.301  12.062  27.583  0.0022  0.0376 -0.3927
 9697S        S16501   5.764  12.311  14.065  0.1424  0.0765 -0.2427
 9698S        S16502   5.798   2.128  26.890  0.1934  0.1103  0.6997
 9699S        S16503   4.003   4.400  14.761  0.3673  0.0403 -0.1709
 9700S        S16504   6.292   0.192  13.006  0.0396 -0.0260  0.5950
 9701S        S16505   3.438   3.946  22.801  0.4391 -0.2367 -0.2421
 9702S        S16506   1.368   3.706  19.894  0.2428  0.2316  0.4125
 9703S        S16507   6.839   9.686  26.322 -0.1666  0.1506  0.3617
 9704S        S16508   3.947   2.367  29.923  0.9530  0.4513  0.0287
 9705S        S16509   0.780   1.080  27.482  0.5681  0.1427 -0.0948
 9706S        S16510   8.029   7.139  26.964  0.3954 -0.0882  0.5501
 9707S        S16511   9.230   2.678  12.389  0.2403  0.0033  0.3573
 9708S        S16512   8.026   1.454  25.706  0.2019 -0.6355 -0.8064
 9709S        S16513   3.345   8.351  26.425  0.2675  0.3364  0.1146
 9710S        S16514   9.451   6.844  22.120  0.2930 -0.1071 -0.5131
 9711S        S16515   5.913   2.424  20.444 -0.3150 -0.2242  0.1575
 9712S        S16516   5.538   1.868  21.798 -0.0424  0.3136  0.6098
 9713S        S16517  12.329   0.263  11.886 -0.0663 -0.3122 -0.0955
 9714S        S16518   5.985   6.747  16.932 -0.2694 -0.0650 -0.2331
 9715S        S16519   4.760   7.480  12.031  0.2232  0.0459 -0.4123
 9716S        S16520   0.103   5.550  19.644 -0.1374  0.0642  0.1111
 9717S        S16521   6.342  10.394  12.324 -0.0970 -0.1982  0.3385
 9718S        S16522   3.814   9.689  18.660 -0.6280 -0.3949 -0.1515
 9719S        S16523   5.963  11.339  11.974 -0.2756  0.3810  0.1404
 9720S        S16524   5.659   4.836  22.016 -0.0193 -0.0338  0.6470
 9721S        S16525   6.538   5.444  21.839 -0.1413  0.0089  0.2374
 9722S        S16526   9.005   1.941  12.974 -0.0843 -0.2321  0.1889
 9723S        S16527  11.085   6.367  29.857 -0.9737  0.0675 -0.0524
 9724S        S16528   2.946   9.244  24.140  0.4792  0.0561  0.4810
 9725S        S16529   1.750   8.239   4.872  0.0170  0.4021 -0.0744
 9726S        S16530   9.108   2.798  25.909  0.4780 -0.3347 -0.0683
 9727S        S16531   8.476  11.659  13.153 -0.1680 -0.0959 -0.0558
 9728S        S16532   6.723   7.434  15.143  0.3535 -0.0983  0.1844
 9729S        S16533   7.993   1.912  24.087 -0.4127 -0.1976 -0.2194
 9730S        S16534   4.398   5.913   7.723  0.0128  0.4693  0.1335
 9731S        S16535   7.429   4.303  43.652  0.3835 -0.2081  0.0332
 9732S        S16536   0.457   3.583  13.809  0.0153 -0.5745  0.1853
 9733S        S16537   9.770   3.973  15.115 -0.4438  0.1472  0.0328
 9734S        S16538   0.877   2.260  23.622  0.1647 -0.4450 -0.0002
 9735S        S16539   6.149   7.315  18.836  0.4958 -0.2594 -0.3220
 9736S        S16540   5.532   0.087  20.488  0.0963 -0.2181  0.0256
 9737S        S16541   2.560   0.195  15.987 -0.8673  0.1050  0.7542
 9738S        S16542   2.739   2.667  17.453 -0.3196 -0.5396  0.0333
 9739S        S16543   4.362  11.606  21.801  0.0166  0.0248  0.0885
 9740S        S16544   5.715   8.564  13.304 -0.0037 -0.2861 -0.4090
 9741S        S16545   9.917   6.042  18.701 -0.5620  0.6783  0.2476
 9742S        S16546   2.409   2.755  23.844 -0.1092  0.2379 -0.0690
 9743S        S16547  10.187   9.872  20.044  0.1832 -0.5536 -0.1509
 9744S        S16548  11.594   4.756  24.680 -0.0129 -0.5374 -0.3397
 9745S        S16549   4.102   8.911  16.570 -0.1742 -0.2419 -0.0643
 9746S        S16550  12.112   4.794  29.503  0.5225 -0.1770  0.1400
 9747S        S16551   0.692   0.833  13.698  0.3789 -0.5481  0.2056
 9748S        S16552   4.752  10.184  31.632  0.1502 -0.1215  0.4799
 9749S        S16553  10.702  10.254  26.829  0.2304 -0.7790  0.4924
 9750S        S16554  10.884   5.528  21.720  0.1292 -0.3498 -0.1979
 9751S        S16555   9.879   7.799  12.548 -0.5550  0.4978 -0.4352
 9752S        S16556   9.609   5.989  29.773  0.4740  0.0744  0.7030
 9753S        S16557   2.211  11.664  28.835  0.3854  0.2513 -0.6309
 9754S        S16558   1.586  10.500  21.028 -0.3910 -0.2559  0.0733
 9755S        S16559   5.692  11.960  29.940 -0.1737 -0.1761 -0.3678
 9756S        S16560   3.069   6.134  26.517 -0.0516 -0.5790 -0.1188
 9757S        S16561  11.299   5.700  24.062  0.2060  0.0657  0.0981
 9758S        S16562   4.405   5.731  13.913  0.0787 -0.0324  0.2294
 9759S        S16563   8.955   5.796  26.462  0.3255 -0.1862  0.1664
 9760S        S16564   0.213   0.248  25.105  0.1417  0.1222 -0.5753
 9761S        S16565  10.816   2.886  17.682 -0.6638  0.3925 -0.3101
 9762S        S16566   4.712   6.315  31.760 -0.3437  0.1873  0.0166
 9763S        S16567   7.053  10.964  31.255 -0.2047  0.1388 -0.0186
 9764S        S16568   5.405   7.599  28.659 -0.3589  0.0770  0.2060
 9765S        S16569  10.072   3.649  17.310 -0.2116  0.1785 -0.0072
 9766S        S16570   5.895   8.671  15.186  0.4629  0.3754 -0.6100
 9767S        S16571   4.465  10.351  18.219  0.3658  0.2163 -0.3498
 9768S        S16572  10.306   3.467   8.456  0.2290  0.1817  0.3930
 9769S        S16573  11.556   3.606  18.701  0.0616  0.0154  0.3940
 9770S        S16574  10.587   4.997  29.645 -0.4534  0.2553 -0.2406
 9771S        S16575   0.147   6.960  21.669  0.0877 -0.4737  0.1916
 9772S        S16576   0.390   7.223  17.724 -0.0557 -0.3354  0.4632
 9773S        S16577   7.758   2.623  11.319  0.7635 -0.4896 -0.3087
 9774S        S16578   9.499   7.521  12.976 -0.1833 -0.0380  0.3812
 9775S        S16579   0.351  10.579  26.068  0.3175  0.1078 -0.5971
 9776S        S16580  10.736  12.209  31.545  0.1788  0.3038  0.7627
 9777S        S16581   7.302   8.918  19.734  0.2468 -0.2620  0.4195
 9778S        S16582  11.299   2.648  21.261  0.4937  0.2762 -0.2583
 9779S        S16583  11.082   1.266  20.628 -0.3010  0.0514  0.0882
 9780S        S16584   6.944   6.088  12.101 -0.0777 -0.0517 -0.2938
 9781S        S16585  11.448  10.038  24.540  0.1810  0.1709  0.2586
 9782S        S16586   0.781   3.165  24.959  0.2319  0.6637 -0.1431
 9783S        S16587   6.763   4.923  15.331  0.2122 -0.0714  0.1042
 9784S        S16588  10.538   6.604  14.449  0.5413  0.2274  0.2201
 9785S        S16589   4.564   8.701  29.217 -0.1425 -0.4899 -0.2666
 9786S        S16590   6.873  10.731  22.788 -0.0886 -0.4138  0.2866
 9787S        S16591   8.012   5.904  16.205 -0.2454 -0.3760  0.3164
 9788S        S16592   7.739   8.956  19.283  0.3409  0.0268  0.0239
 9789S        S16593   9.770   7.784  12.064  0.2552 -0.0467 -0.0336
 9790S        S16594   8.920   3.711  40.104  0.2515 -0.1276  0.7032
 9791S        S16595  10.417   6.224  20.576  0.1069  0.2266  0.3858
 9792S        S16596   2.836   7.799  18.969  0.2743  0.0382  0.1313
 9793S        S16597   7.215   2.005  27.852  0.8526  0.6334 -0.2999
 9794S        S16598  11.855   6.122  18.087 -0.0647  0.0088  0.0499
 9795S        S16599   6.344   6.647  25.559 -0.4872  0.1569 -0.4237
 9796S        S16600   5.764   3.910  47.097 -0.1143  0.2754 -0.0467
 9797S        S16601   2.011   1.360  30.868 -0.3064 -0.9395  0.9200
 9798S        S16602   1.120   0.932  22.624 -0.1651  0.8697  0.0348
 9799S        S16603   5.607   6.405  31.867  0.1776 -0.0845  0.3697
 9800S        S16604   4.352   1.084  12.419 -0.1964  0.2287 -0.4985
 9801S        S16605   7.285   9.249  14.510  0.4902  0.6226  0.3790
 9802S        S16606   2.217   8.627  19.468  0.5819  0.5075  0.5189
 9803S        S16607  12.104  10.900  23.980 -0.1600 -0.0485  0.0254
 9804S        S16608   0.551   2.837  11.926 -0.4631  0.1300  0.0140
 9805S        S16609  10.354   2.390  21.722 -0.2932  0.4326  0.4042
 9806S        S16610   4.917   8.225  25.832  0.1410 -0.8115  0.5706
 9807S        S16611  11.012   2.356  12.928 -0.0454 -0.3524  0.1097
 9808S        S16612   7.011   7.223  24.887 -0.2758 -0.6675  0.2983
 9809S        S16613   4.594   7.425  27.643 -0.1138  0.4279  0.4111
 9810S        S16614  10.277   7.148  16.142 -0.3461 -0.0026 -0.1004
 9811S        S16615  11.246   0.440  20.601  0.3962 -0.1968 -0.1746
 9812S        S16616   2.366   7.479  35.657  0.1369 -0.0678 -0.0126
 9813S        S16617   2.960   4.359  11.699 -0.2257 -0.2500 -0.1144
 9814S        S16618   9.212   4.078  11.766 -0.1990 -0.0856 -0.1289
 9815S        S16619   0.525   6.544  18.184 -0.6289  0.6075 -0.2093
 9816S        S16620   4.910   6.594  28.571  0.0796 -0.0369  0.1429
 9817S        S16621  11.448   7.393  23.385 -0.1401  0.1824 -0.8789
 9818S        S16622  10.182   9.676  16.730  0.1680 -0.0673 -0.1375
 9819S        S16623   1.595  11.951  23.874  0.0563 -0.2654  0.3708
 9820S        S16624   8.631   5.213  27.278 -0.7193  0.4126  0.5993
 9821S        S16625   5.244   5.123  21.239  0.0784 -0.4121 -0.0102
 9822S        S16626  12.015  10.580  14.957  0.0768 -0.1611  0.1135
 9823S        S16627   7.788   3.036  11.054 -0.2091  0.3033 -0.1739
 9824S        S16628   0.003  10.972  26.448 -0.0755  0.2781 -0.5317
 9825S        S16629   8.882   8.283  20.111 -0.4498 -0.5472  0.1386
 9826S        S16630   2.476   8.499  31.309  0.0937 -0.2277  0.4876
 9827S        S16631   7.388  11.584  14.472 -0.0669 -0.1563  0.0959
 9828S        S16632  12.093   3.457  14.440 -0.2935  0.5016 -0.0215
 9829S        S16633   0.253   3.985  11.836 -0.1117  0.0598  0.0774
 9830S        S16634   2.569   0.889  21.780 -0.3706  0.0682  0.2708
 9831S        S16635   9.666   3.677  28.414  0.2360  0.2300 -0.0034
 9832S        S16636  11.655   8.510  23.429 -0.3850  0.4406 -0.1406
 9833S        S16637   6.402   7.399  12.569  0.2739  0.1308 -0.2394
 9834S        S16638  10.515   3.360  11.873 -0.2555 -0.3422  0.0131
 9835S        S16639  10.516  10.680  31.934 -0.8440 -0.2052  0.0777
 9836S        S16640  10.646  12.153  17.405  0.0301 -0.2249 -0.2474
 9837S        S16641   4.102   1.187  32.156  0.4936 -0.5048 -0.5840
 9838S        S16642   5.492  11.915  21.259 -0.6051  0.0922  0.7060
 9839S        S16643   0.437   5.833  28.946 -0.8757 -0.4123 -0.2782
 9840S        S16644   0.489   6.668  31.978  0.4912  0.6618  0.1300
 9841S        S16645   5.456   7.491  22.974  0.1196 -0.2519  0.5411
 9842S        S16646   2.566   6.020  27.582  0.2796  0.1039  0.0316
 9843S        S16647   3.399  12.100  26.049 -0.2859  0.0316  0.3773
 9844S        S16648   5.066   8.396  28.738 -0.3480  0.2016  0.5317
 9845S        S16649  11.295   0.719  15.392  0.1989 -0.0652  0.0568
 9846S        S16650   5.218   0.090  25.296  0.6909 -0.0465  0.0829
 9847S        S16651   5.503   4.378  14.003 -0.2461  0.0374  0.1378
 9848S        S16652  12.132   0.651  21.342  0.0955 -0.1287 -0.0059
 9849S        S16653   6.893   3.989  25.406  0.4301 -0.5857 -0.1422
 9850S        S16654   6.020   9.216   9.973 -0.2123  0.3655  0.0718
 9851S        S16655   5.448   1.527  26.011 -0.3531 -0.0842 -0.2477
 9852S        S16656   1.383   6.147  14.151 -0.0893 -0.0329 -0.6015
 9853S        S16657   5.110   0.785  17.713 -0.0636 -0.0000 -0.2449
 9854S        S16658   1.374   7.845  15.268 -0.3548 -0.0099 -0.1301
 9855S        S16659  11.749  11.468  31.048 -0.4026  0.0563 -0.0852
 9856S        S16660   8.656  10.563  20.709  0.1968  0.3515 -0.2992
 9857S        S16661   0.471   5.818  11.368 -0.2195 -0.1812 -0.3560
 9858S        S16662   8.532   9.966  18.513 -0.7132 -0.4405 -0.0910
 9859S        S16663  10.703   7.840  20.122  0.3475  0.2620  0.1562
 9860S        S16664  10.672   4.810  12.666  0.6857  0.3938 -0.0985
 9861S        S16665   6.759   4.170  14.315 -0.8296  0.2015  0.2295
 9862S        S16666   6.611   0.833  25.255 -0.1393 -0.5604  0.1430
 9863S        S16667  11.029   2.670  22.397 -0.2110 -0.1347  0.0481
 9864S        S16668   8.679   3.133  32.767 -0.3907 -0.0566 -0.2415
 9865S        S16669   0.693  10.451  23.913 -0.2185 -0.6747  0.0599
 9866S        S16670   4.398   6.216  21.620 -0.1986  0.0388  0.1127
 9867S        S16671   6.191  10.726  17.271 -0.1779 -0.1837 -0.0327
 9868S        S16672   1.708   3.622  14.447 -0.2629  0.3470 -0.1534
 9869S        S16673   6.670  11.997  28.248  0.3006 -0.6175 -0.4763
 9870S        S16674   9.762   6.417  25.761 -0.6658  0.2121 -0.3627
 9871S        S16675   3.198   7.915  17.195  0.2038  0.3788 -0.2064
 9872S        S16676   2.356   2.821  18.450 -0.1397  0.4210 -0.4250
 9873S        S16677  11.251   2.034  24.562 -0.0584  0.4798 -0.0873
 9874S        S16678   8.723  12.241  17.509 -0.1808  0.4535 -0.2453
 9875S        S16679  10.477   2.487  29.265 -0.2846 -0.4190  0.2567
 9876S        S16680  10.300   4.423  30.514  0.0567 -0.1105  0.4186
 9877S        S16681   5.249   1.703  19.808  0.1799 -0.2102  0.1195
 9878S        S16682  11.357   7.488  19.885  0.0451  0.3536 -0.5254
 9879S        S16683   2.825   5.035  27.612  0.4267  0.0778  0.2441
 9880S        S16684   5.130   6.120  12.461  0.4788  0.0833 -0.1009
 9881S        S16685   9.566   9.882  19.352 -0.1801  0.0278  0.1764
 9882S        S16686   4.824  11.380  36.278 -0.1737  0.0189  0.5132
 9883S        S16687   4.542   5.239  16.456 -0.2748 -0.1590  0.2649
 9884S        S16688   0.688   3.973  14.683 -0.1002 -0.3271 -0.5611
 9885S        S16689   0.566   2.486  30.097 -0.2452 -0.1635  0.1699
 9886S        S16690   4.892  12.001  20.524  0.1582 -0.2010 -0.0535
 9887S        S16691   3.322  11.699  11.351  0.3058 -0.2529 -0.1023
 9888S        S16692   3.295   2.639  31.592 -0.1046  0.4007 -0.1192
 9889S        S16693   6.031   9.091  32.618  0.4146 -0.9437 -0.1032
 9890S        S16694  12.029   3.158  28.738 -0.8245  0.7171  0.4695
 9891S        S16695   8.148  11.892  12.744 -0.1000  0.3442  0.2135
 9892S        S16696  10.237   5.107  18.468  0.6046  0.0199  0.0716
 9893S        S16697  11.743  10.308  16.338  0.1758 -0.2637 -0.3289
 9894S        S16698  10.135   5.321  22.409  0.0707 -0.9404  0.2489
 9895S        S16699   7.634   6.819  20.058 -0.3097  0.8781 -0.2803
 9896S        S16700   6.062   1.680  11.578  0.0628 -0.2712 -0.6427
 9897S        S16701   9.457   2.878  33.041 -0.3354  0.1299  0.0701
 9898S        S16702   1.725   3.469  29.893 -0.2123  0.4068  0.2893
 9899S        S16703   4.257   6.570  31.559 -0.2041 -0.1620  0.0058
 9900S        S16704   8.330   6.156  20.969 -0.5403  0.3076  0.3896
 9901S        S16705   4.956   8.351  40.062  0.3410 -0.1862  0.1108
 9902S        S16706   4.821   6.876  29.245  0.3352  0.3696  0.0029
 9903S        S16707   7.756  11.551  14.024  0.0592 -0.0855  0.2247
 9904S        S16708   3.917   4.692  16.545 -0.0412 -0.0610 -0.2028
 9905S        S16709  11.463   0.872  20.611  0.3855 -0.4222  0.1992
 9906S        S16710   7.459   1.392  29.898 -0.0432 -0.4619 -0.0049
 9907S        S16711   3.881   2.176  21.127  0.2838 -0.0618  0.0199
 9908S        S16712   7.283   1.133  15.231 -0.1484  0.2554 -0.0842
 9909S        S16713   8.736   6.213  15.015 -0.6650  0.0235  0.5052
 9910S        S16714   9.751   2.791  27.588  0.1711 -0.0876  0.0621
 9911S        S16715   0.027   8.878  27.343 -0.3365 -0.1894  0.2069
 9912S        S16716  11.953   8.271  10.805  0.0390 -0.1181  0.7469
 9913S        S16717  10.015   1.401  29.116  0.3123 -0.3822  0.6652
 9914S        S16718   2.283   0.533  29.272  0.1733  0.3823 -0.1064
 9915S        S16719   7.397   3.026  12.789  0.0586 -0.0259  0.0053
 9916S        S16720  10.101   2.018  14.102 -0.1294 -0.0515  0.0031
 9917S        S16721   8.982   8.127  30.458  0.1180 -0.3196 -0.1160
 9918S        S16722   3.224   5.966  28.158 -0.0799 -0.8723 -0.6484
 9919S        S16723   5.103  11.869  10.855 -0.1009 -0.1212  0.0354
 9920S        S16724   0.209   2.674  15.701 -0.0678 -0.2611 -0.1791
 9921S        S16725   0.791   7.872  10.779 -0.0960 -0.2225  0.0254
 9922S        S16726   8.817   1.955  24.955 -0.1374  0.3035  0.1091
 9923S        S16727   1.065   7.135   7.812  0.0602 -0.0347  0.4006
 9924S        S16728   4.393   7.249  14.821  0.2455  0.1765  0.4113
 9925S        S16729   9.123   7.667  23.064 -0.0677  0.3957  0.4463
 9926S        S16730   7.742   6.963  32.397 -0.3138 -0.2260  0.0308
 9927S        S16731   5.613   9.597   9.874 -0.0363  0.0833  0.7120
 9928S        S16732   5.320   9.227  20.202  0.3229 -0.0142 -0.0056
 9929S        S16733  11.931   6.280  21.646 -0.3708  0.0218  0.1890
 9930S        S16734   2.022   9.215  17.915 -0.4008  0.0706  0.0935
 9931S        S16735   1.125   9.377  11.096 -0.7255 -0.1388  0.0072
 9932S        S16736   2.382  11.266  21.785 -0.3726  0.0791  0.2830
 9933S        S16737   3.533   9.409  24.953  0.1348 -0.3828 -0.1189
 9934S        S16738   3.417   1.926  49.175  0.3453  0.0888 -0.0748
 9935S        S16739   9.280   1.826  11.979 -0.0604 -0.1238 -0.0958
 9936S        S16740   9.660   5.051  13.814 -0.4125  0.1930 -0.0904
 9937S        S16741   5.951   8.769  19.056  0.1053 -0.1053 -0.4003
 9938S        S16742  12.119  10.128  17.784  0.2586  0.0117  0.6694
 9939S        S16743   5.460   2.885  18.779  0.0987  0.0128 -0.3256
 9940S        S16744   4.722   9.604  16.492  0.1133  0.3560 -0.0297
 9941S        S16745   7.617   2.222  28.987 -1.0672 -0.0062  0.3321
 9942S        S16746   9.464  11.927  14.855  0.3383  0.0473  0.4859
 9943S        S16747   9.973  10.805  19.672 -0.3561  0.0474  0.1078
 9944S        S16748  11.301   1.663  12.306 -0.2752  0.1066 -0.0316
 9945S        S16749   2.905   6.825  29.069 -0.3657 -0.2495 -0.4811
 9946S        S16750   2.971   8.236  23.748  0.1831 -0.3365  0.0647
 9947S        S16751   5.354   7.888  28.182  0.3693  0.4028  0.0425
 9948S        S16752  12.119  10.141  23.831  0.1013 -0.0814 -0.1330
 9949S        S16753   1.036   6.716  18.564  0.0723  0.0333 -0.4205
 9950S        S16754   7.967   5.148  29.780 -0.1386 -0.2002 -0.1454
 9951S        S16755   0.147   9.038  24.827 -0.4285 -0.1254 -0.0623
 9952S        S16756   7.245   5.803  25.473 -0.2028  0.4504 -0.3196
 9953S        S16757   8.018  10.047  26.662  0.1427 -0.2400 -0.1495
 9954S        S16758   8.450   2.136  13.336  0.2740  0.1399  0.1678
 9955S        S16759   0.959  12.157  26.499 -0.2926 -0.5028  0.0881
 9956S        S16760   5.916   5.160  20.362 -0.1314 -0.2432 -0.3773
 9957S        S16761   4.038   2.551  13.047  0.7859 -0.0279  0.0974
 9958S        S16762   6.503   6.866  24.723  0.2689 -0.1009  0.1946
 9959S        S16763   8.740   4.725  24.878  0.3391 -0.1196  0.0545
 9960S        S16764  12.150   8.923  12.182 -0.4916 -0.5408 -0.3315
 9961S        S16765  10.870   4.043  21.737 -0.5370 -0.1598  0.5238
 9962S        S16766  11.998  10.728  11.166 -0.3174 -0.2487  0.1131
 9963S        S16767   7.149   5.139  18.904  0.3491  0.2237  0.4941
 9964S        S16768   9.632   6.360  18.350  0.1399 -0.2892  0.2760
 9965S        S16769   7.995   7.374  15.846  0.0492 -0.2274  0.0359
 9966S        S16770   8.023   5.579  28.260  0.6417  0.2720 -0.2186
 9967S        S16771   9.668   1.301  31.350  0.0893 -0.4084  0.5197
 9968S        S16772   9.114   7.826  12.807 -0.2093 -0.0945  0.1744
 9969S        S16773   1.915   9.638  23.058 -0.0702  0.4467 -0.2584
 9970S        S16774  11.133  11.863  32.372  0.3360  1.2984 -0.2921
 9971S        S16775   9.682   4.985  29.814  0.0378  0.0058  1.0657
 9972S        S16776   7.416   1.246  24.142  0.2659 -0.3329  0.7349
 9973S        S16777   2.149   4.424  13.340  0.2570 -0.5346  0.0621
 9974S        S16778   5.825   3.758  14.835  0.0032 -0.4387  0.3769
 9975S        S16779   9.864   8.637  14.787  0.0366  0.4083 -0.4853
 9976S        S16780   5.287   1.007  27.984  0.0836  0.0958  0.0888
 9977S        S16781   1.977  10.291  15.130  0.0400 -0.0923  0.2564
 9978S        S16782   1.413   4.450  18.439  0.1561  0.1330  0.0549
 9979S        S16783   7.119   1.173  20.758 -0.0425  0.2411 -0.2123
 9980S        S16784  10.084   9.479  20.342  0.0886 -0.3953  0.5775
 9981S        S16785  10.918   0.479  28.354 -0.1098 -0.1889 -0.7794
 9982S        S16786   9.794   4.355  31.036 -0.0913 -0.1428 -0.9171
 9983S        S16787   7.072   5.106  17.801 -0.3891  0.0885  0.5125
 9984S        S16788   9.869  11.542  26.377  0.4092  0.0896 -0.2072
 9985S        S16789   3.886   1.253  12.520 -0.0404  0.1053 -0.3522
 9986S        S16790   7.067   7.353  19.633  0.4276  0.0987 -0.0360
 9987S        S16791   6.657   6.258  29.334 -0.4281 -0.1303  0.2930
 9988S        S16792   2.117   9.748  30.604 -0.4284 -0.1778  0.0448
 9989S        S16793  10.948  10.820  11.514 -0.1036 -0.2803  0.0752
 9990S        S16794   1.549   2.856  31.080  0.0204  0.2412  0.7973
 9991S        S16795   2.455  11.344  18.543  0.3372 -0.2671 -0.3184
 9992S        S16796   2.221   9.797  20.039 -0.0193  0.2452  0.0448
 9993S        S16797   8.820   1.571  14.286 -0.5093 -0.3607 -0.0047
 9994S        S16798   9.572   1.036  12.570  0.1462 -0.1508 -0.4888
 9995S        S16799   4.191   3.549  22.947  0.1438  0.0952  0.0373
 9996S        S16800   8.219  11.461  14.639  0.5330 -0.3097  0.3446
 9997S        S16801   2.920   9.373  18.217  0.5982  0.0221 -0.0345
 9998S        S16802   8.487   2.182  11.683  0.4064  0.2510 -0.2546
 9999S        S16803   0.526   7.109  20.257 -0.2432  0.0940  0.1514
10000S        S16804   0.997   7.265  30.187 -0.1097 -0.5003 -0.2830
10001S        S16805   0.847   8.430  15.750  0.3731 -0.1314  0.0335
10002S        S16806  10.448   2.272  17.888 -0.4137 -0.0026  0.3759
10003S        S16807   2.405   9.272  27.425  0.6151  0.5495 -0.2815
10004S        S16808   5.118   9.301  27.955  0.0904 -0.2359 -0.3388
10005S        S16809   6.573  12.251  26.757 -0.0926  0.2486 -0.3096
10006S        S16810   9.651   4.212  25.282 -0.6056  0.5535 -0.5980
10007S        S16811   6.646   7.820  27.275 -0.3766 -0.1030 -0.0120
10008S        S16812   7.769   1.565  16.252 -0.0317  0.2334  0.1031
10009S        S16813   5.075  11.411  15.025  0.4848 -0.3161 -0.3507
10010S        S16814   1.677   8.489  12.457 -0.1045  0.2565  0.5097
10011S        S16815   7.233   6.629  13.336  0.0849 -0.0235  0.5351
10012S        S16816   8.530   6.406  14.179 -0.2221  0.0234  0.2803
10013S        S16817   5.044   0.351  15.895 -0.0141  0.0729  0.2795
10014S        S16818   2.090   7.376  17.694  0.3285 -0.0382 -0.2582
10015S        S16819   2.698   5.163  21.497  0.3977 -0.1242  0.1837
10016S        S16820   7.587   5.896   0.886  0.3329  0.0735  0.1329
10017S        S16821   7.771   0.706  21.216 -0.7229  0.1195  0.3509
10018S        S16822   6.497   6.224  11.705 -0.3985 -0.5300 -0.3487
10019S        S16823   3.901   2.674  13.533 -0.4518 -0.0092  0.0106
10020S        S16824   0.012   5.822  21.456 -0.5416  0.0828  0.2152
10021S        S16825   9.464   1.240  16.221 -0.0189 -0.0421 -0.4035
10022S        S16826   7.548   6.197  17.949  0.0802 -0.0514 -0.3971
10023S        S16827   7.488   5.147  22.175 -0.2054 -0.3588  0.6966
10024S        S16828   4.703   6.036  28.365  0.1805  0.2282  0.3346
10025S        S16829   5.723   3.448  17.090 -0.1137 -0.2435 -0.3332
10026S        S16830   1.621   3.360  32.151  0.5469  0.2951 -0.5139
10027S        S16831   8.136   6.379  25.399 -0.5798  0.1155 -0.3765
10028S        S16832   7.838   3.758  46.069 -0.2701  0.1798  0.1328
10029S        S16833   3.806   5.080  18.584  0.0196  0.5069  0.3671
10030S        S16834   8.517   1.074  24.087  0.3205 -0.5192 -0.2774
10031S        S16835  11.566   5.584  14.311 -0.2126 -0.0532 -0.2457
10032S        S16836   1.666   7.899  12.500 -0.1133 -0.3698  0.8242
10033S        S16837   1.583   8.777  26.775 -0.3718  0.7927  0.3222
10034S        S16838  10.074   1.048  21.121 -0.3282  0.1460  0.1758
10035S        S16839  11.234   5.087  18.826 -0.7078 -0.2178  0.3711
10036S        S16840   5.794   0.991  16.387  0.1409  0.0663  0.0322
10037S        S16841   9.317   9.429  19.993  0.3136  0.3644 -0.0793
10038S        S16842   0.171   0.894  14.160 -0.2977  0.2255  0.0704
10039S        S16843   7.021   1.042  16.432  0.2051  0.0627  0.2966
10040S        S16844   4.194   6.329  20.756  0.1789 -0.5206 -0.1838
10041S        S16845   5.655   3.690  23.072  0.3325  0.1556  0.6310
10042S        S16846  10.472   5.179  21.566 -0.0974 -0.2046  0.0949
10043S        S16847   3.344   5.671  20.993  0.0447  0.1328  0.0684
10044S        S16848   4.149   6.799  15.169 -0.0585  0.2390 -0.2745
10045S        S16849   4.641   5.746  17.912  0.1819  0.4166  0.0565
10046S        S16850   7.421   0.769  14.319  0.4277  0.1139  0.1832
10047S        S16851   6.965   3.371  12.285 -0.6583 -0.2812 -0.3434
10048S        S16852   6.486   4.890  21.791  0.4635 -0.6114 -0.3053
10049S        S16853   6.238  10.809  12.038  0.5337  0.5049 -0.2343
10050S        S16854  11.853  12.354  16.921 -0.3499  0.0576  0.6908
10051S        S16855   4.856   6.439  24.909 -0.5121 -0.2898 -0.6485
10052S        S16856   8.905   4.499  26.888  0.7292 -0.3020 -0.1467
10053S        S16857   9.829   8.003  20.412 -0.7559 -0.3966 -0.1257
10054S        S16858   9.459   2.754  27.102  0.0930  0.0318  0.3718
10055S        S16859   7.908   2.590  31.030  0.0474 -0.1717  0.1319
10056S        S16860   8.182   5.487  14.400 -0.1912  0.2980 -0.0318
10057S        S16861   0.502   0.699  23.253  0.3488  0.2577 -0.3308
10058S        S16862   4.961   6.332  26.867 -1.1169  0.1179  0.1177
10059S        S16863   8.068   9.737  30.178 -0.3693 -0.0720 -0.5712
10060S        S16864  12.251   2.358  32.136  0.2948 -0.4685  0.7530
10061S        S16865   8.201   6.307  26.282 -0.2803  0.1498  0.0619
10062S        S16866   7.830  11.171  14.302 -0.0572 -0.3857  0.5271
10063S        S16867   2.472   1.909  27.461  0.4164  0.0230  0.1885
10064S        S16868   1.299   8.887  25.945 -0.0677 -0.5708  0.4283
10065S        S16869   2.623   0.110  29.338 -0.5772 -0.5314 -0.1772
10066S        S16870   6.732  12.066  25.015 -0.3149 -0.3179 -0.0461
10067S        S16871   5.424  11.540  24.348 -0.7201  0.5819  0.0398
10068S        S16872   4.532   8.716  18.314  0.2839 -0.1358  0.1134
10069S        S16873   0.866  10.858  21.587 -0.3099  0.4731 -0.5099
10070S        S16874   6.270   3.513  27.619  0.0254  0.4214 -0.3134
10071S        S16875   2.328   7.426  29.717  0.5335  0.4562  0.2562
10072S        S16876   9.711   2.916  28.124 -0.2629 -0.0460  0.2919
10073S        S16877   4.539   5.364  23.377 -0.4908  0.3623 -0.1470
10074S        S16878   2.520  10.785  11.873  0.0511  0.0755  0.1326
10075S        S16879   4.854   3.730  17.482  0.0067  0.1063 -0.2712
10076S        S16880   1.319   7.775  19.211  0.2722  0.4025 -0.4830
10077S        S16881   9.393   4.136  14.758  0.3377 -0.2513 -0.3104
10078S        S16882   5.029   5.560  19.363 -0.2545 -0.4490 -0.4586
10079S        S16883   0.433   3.209  15.086  0.6856 -0.1452 -0.6946
10080S        S16884   6.061   2.051  22.358 -0.1173  0.0935 -0.7660
10081S        S16885   9.655   9.137  25.102 -0.1352 -0.0221  0.7346
10082S        S16886   2.185   3.295  20.178  0.1702 -0.0629  0.6655
10083S        S16887  10.908  11.932  16.758  0.0027  0.2424  0.3555
10084S        S16888   5.765   8.952  17.132  0.4689  0.2880 -0.3746
10085S        S16889   5.516   9.100  12.024  0.1649 -0.4497 -0.0687
10086S        S16890   2.709   5.239  12.122  0.1143 -0.3908  0.2391
10087S        S16891   7.946   3.644  25.156 -0.0823 -0.3416  0.1524
10088S        S16892   3.747   1.856  25.262  0.1444 -0.5104  0.3072
10089S        S16893   2.006   0.496  30.225 -0.5149 -0.2783 -0.6304
10090S        S16894   4.263   4.761  26.782  0.4492 -0.1741 -0.4454
10091S        S16895   0.836  12.085  24.066 -0.1227  0.2998  0.1166
10092S        S16896   5.046  10.317  18.274 -0.1475 -0.0371 -0.3565
10093S        S16897  10.179   0.496  19.157  0.1777 -0.1684  0.3696
10094S        S16898   7.194  10.319  11.593 -0.0639  0.2776 -0.0019
10095S        S16899   1.391   4.469  21.123  0.0148 -0.0438 -0.4160
10096S        S16900   4.101   2.809  25.711 -0.0555 -0.3246 -0.2072
10097S        S16901   0.428   8.416  11.521  0.3904 -0.2133  0.5099
10098S        S16902   8.606   1.131  26.676  0.3366 -0.0378 -0.2176
10099S        S16903   1.442  11.290  31.353 -0.1041  0.5274 -0.1338
10100S        S16904   3.001   9.725  17.253  0.2175  0.4442 -0.3687
10101S        S16905   4.502   8.672  19.295 -0.4168  0.2395  0.1023
10102S        S16906  11.627   6.430  23.635  0.3188 -0.3159  0.1239
10103S        S16907   0.018   7.503  17.608  0.1856 -0.1668 -0.3371
10104S        S16908   8.159  11.792  24.275 -0.7903 -0.3794 -0.1604
10105S        S16909   9.325   1.450  37.581 -0.3278  0.4360 -0.0318
10106S        S16910   6.024   1.886  21.208 -0.5726  0.3979  0.1973
10107S        S16911  11.670   0.406  20.821 -0.1604  0.7473  0.6684
10108S        S16912   1.194  11.103  21.250  0.1975  0.3535 -0.2842
10109S        S16913   3.028   6.404  18.836  1.0282 -0.0391 -0.3637
10110S        S16914   6.550   1.019  28.777 -0.0650  0.2646 -0.2372
10111S        S16915   6.225   6.348  21.312  0.0462  0.2371  0.6592
10112S        S16916   9.590   9.850  19.873 -0.0236  0.3599  0.4932
10113S        S16917   2.819   4.451  17.277  0.1533  0.2954 -0.3557
10114S        S16918   4.361   9.676  28.960 -0.0308 -0.5239 -0.3716
10115S        S16919   7.815  10.188  16.089  0.0381 -0.3768  0.2560
10116S        S16920   7.837   3.613  21.741  0.5753  0.2214 -0.0040
10117S        S16921   2.028   7.842  11.317 -0.0767  0.2009  0.1673
10118S        S16922  12.331   0.508  18.266  0.0776  0.1125 -0.3061
10119S        S16923   9.236   6.239  14.278  0.6077  0.0278 -0.3101
10120S        S16924   3.170   3.063  17.783 -0.3170 -0.3817 -0.4408
10121S        S16925   7.301  10.707  23.037 -0.4054  0.0197  0.4068
10122S        S16926   2.759  11.805  31.483 -0.1632  0.7028 -0.0709
10123S        S16927   1.322   4.215  48.090  0.3117  0.3276  0.0669
10124S        S16928   5.633   3.822  20.500 -0.3751 -0.3376 -0.3388
10125S        S16929   5.226   9.434  18.845 -0.0766 -0.0373  0.2537
10126S        S16930   1.899  12.300  21.534 -0.0593  0.0524 -0.4725
10127S        S16931   2.364   9.605  24.818  0.0398 -0.9167 -0.2295
10128S        S16932  10.600   2.121  19.916  0.3737  0.1401 -0.1835
10129S        S16933   8.924   2.231  12.130  0.1115 -0.2652  0.2946
10130S        S16934  10.894   5.846  17.476 -0.4363  0.2114 -0.4869
10131S        S16935  12.013  11.681  20.976  0.3438  0.4520  0.0258
10132S        S16936   5.551   4.912  24.422  0.0957 -0.3618 -0.0041
10133S        S16937   2.379   8.711  18.532 -0.0158  0.2591  0.0673
10134S        S16938   9.437   9.282  21.374  0.3698  0.1023 -0.0416
10135S        S16939   0.609  10.721  17.038 -0.0766 -0.3398  0.0736
10136S        S16940   4.557   0.968  25.630  0.2373 -0.4817 -0.2768
10137S        S16941   2.788   6.050  26.116  0.1091 -0.0046  0.4999
10138S        S16942   7.898   2.051  13.304 -0.1018  0.1836  0.3184
10139S        S16943   5.181  11.967  29.409 -0.2053 -0.3461 -0.2165
10140S        S16944   2.700   2.782  16.119  0.2414 -0.2581  0.1323
10141S        S16945   8.877   9.398  26.096 -0.2355 -0.0428  0.2031
10142S        S16946   4.910   4.033  13.153 -0.2937 -0.0004  0.7869
10143S        S16947   1.334   6.792  23.447  0.7183  0.1242  0.0992
10144S        S16948   8.762   9.700   4.548  0.1968  0.2856  0.1057
10145S        S16949  12.095   9.978  29.067 -0.4806 -0.3799 -0.0342
10146S        S16950   9.820   8.569  29.884  0.0298 -0.1150  0.4251
10147S        S16951   1.999   4.945  13.514  0.2357 -0.1223  0.0065
10148S        S16952   0.505  11.501  31.037  1.0673 -0.3294  0.5709
10149S        S16953   8.198   8.868  15.651 -0.8400 -0.0797  0.0254
10150S        S16954   5.941   9.850  20.573 -0.2379 -0.3000 -0.4774
10151S        S16955   6.018   7.702  16.883  0.2545  0.3780 -0.4449
10152S        S16956   7.130   0.963  16.937 -0.1481 -0.2061 -0.0724
10153S        S16957   2.237   9.606  11.261  0.2116  0.4554  0.0342
10154S        S16958  10.198   8.102  17.386  0.7116  0.1691 -0.0683
10155S        S16959   3.637   7.512  17.879  0.4853  0.2909  0.0630
10156S        S16960   5.022   6.253  15.508 -0.0011 -0.2595  0.1660
10157S        S16961   8.154   2.648  20.682 -0.2063  0.4299  0.2754
10158S        S16962   4.385   0.776  11.965  0.4794 -0.5916  0.0465
10159S        S16963   8.542  10.436  13.279  0.3742 -0.0392  0.4009
10160S        S16964  12.187   0.001  15.912  0.2097  0.0361  0.0671
10161S        S16965   0.076   8.243  22.522 -0.2644  0.2698 -0.4892
10162S        S16966  10.635   4.640  15.203 -0.7018 -0.0872 -0.5692
10163S        S16967   3.057   3.260  21.809 -0.1013  0.0066  0.0508
10164S        S16968   9.981   4.008  16.061  0.2397  0.3177 -0.4386
10165S        S16969   9.723   6.979  12.932 -0.2038  0.1172  0.2592
10166S        S16970   8.674   7.914  16.555  0.0530  0.2311  0.4871
10167S        S16971   6.030   7.685  12.287  0.2026  0.1842 -0.2929
10168S        S16972   9.790   0.121  26.931  0.0302 -0.1227 -0.1416
10169S        S16973   6.071   6.649  14.132  0.2215  0.3542 -0.3345
10170S        S16974   6.078   0.092   0.852  0.0489  0.0043  0.0737
10171S        S16975   4.193   2.909  26.456 -0.7011  0.3201 -0.5213
10172S        S16976   2.742  10.909  17.225 -0.3859 -0.0662  0.4162
10173S        S16977   5.970  10.500  16.532  0.0799  0.3728 -0.2358
10174S        S16978   8.878   2.963  14.122  0.2900 -0.1650 -0.0386
10175S        S16979   6.327   8.789  24.438 -0.2298  0.2773 -0.4532
10176S        S16980   8.879   0.512  22.601  0.3567  0.2255  0.0961
10177S        S16981   0.733   0.253  24.992  0.3549 -0.4127 -0.1373
10178S        S16982   3.635   1.659  12.531 -0.2576 -0.3950 -0.2201
10179S        S16983   4.297   7.740  17.565  0.0213 -0.0034 -0.8845
10180S        S16984  11.704   7.405  20.887  0.0496  0.3337  0.1175
10181S        S16985   5.370  12.324  15.171  0.1081  0.5404 -0.4323
10182S        S16986  10.003   5.870  23.509  0.1382  0.4310 -0.3321
10183S        S16987   8.701   9.542  19.169 -0.0576  0.7033 -0.1846
10184S        S16988   9.494   4.682  14.736  0.2318 -0.0687  0.0804
10185S        S16989   4.864   0.745  12.058 -0.3211 -0.4721 -0.6944
10186S        S16990   1.510   3.110  20.747  0.5011 -0.5265 -0.1061
10187S        S16991   2.403   5.034  21.003  0.0295 -0.1599  0.3384
10188S        S16992   2.188   4.029  15.942 -0.2680  0.2001  0.8241
10189S        S16993   7.937  12.341  21.135  0.1263  0.2827 -0.2795
10190S        S16994   5.984   2.577  17.327  0.2575  0.2025 -0.4877
10191S        S16995  10.474   6.707  18.630 -0.2956 -0.0824 -0.0237
10192S        S16996   6.537   7.960  14.300  0.2007  0.0247 -0.2628
10193S        S16997   4.795   7.094  23.151  0.2817  0.0170  0.2474
10194S        S16998   8.287   3.072  11.417 -0.0287  0.0757 -0.1756
10195S        S16999   1.574   1.952  28.531  0.1299  0.3311 -0.0061
10196S        S17000   0.894   9.227  11.510 -0.5127  0.4549  0.1624
10197S        S17001   1.324   3.525  24.950  0.4534 -0.1909  0.4079
10198S        S17002   6.156   2.641  25.067  0.2804 -0.1566 -0.1668
10199S        S17003   8.844   5.074  11.595 -0.3208 -0.2274 -0.0188
10200S        S17004   8.010   1.904  28.709 -0.1937  0.2379 -0.0574
10201S        S17005   7.326   4.060  30.324  0.2279  0.2380 -0.1946
10202S        S17006   8.024  12.112  23.422 -0.2813  0.1885 -0.6059
10203S        S17007   3.551   9.918  25.745  0.3311 -0.3703  0.1183
10204S        S17008   4.449   3.731  26.027 -0.4145 -0.1219 -0.0185
10205S        S17009   8.291   2.630  13.061 -0.1282  0.3843  0.0286
10206S        S17010   7.353   8.016  28.387 -0.2411  0.1886 -0.2053
10207S        S17011   9.682   4.359  11.714 -0.2438 -0.0945 -0.2781
10208S        S17012   2.007   9.764  13.860  0.4573 -0.1753 -0.2888
10209S        S17013  10.734  11.739  26.075 -0.0176 -0.5004  0.6097
10210S        S17014   8.225   9.045  33.492  0.6834 -0.1174  0.1653
10211S        S17015   8.484   7.043  17.316  0.0777  0.3494 -0.1824
10212S        S17016   4.790  10.664  31.289 -0.4590 -0.0204 -0.2314
10213S        S17017   9.767   1.254  25.664 -0.2376 -0.4909 -0.0174
10214S        S17018   9.899   1.494  25.124  0.6305 -0.6552  0.3043
10215S        S17019   0.221  11.910  22.509  0.0150 -0.3599 -0.0560
10216S        S17020   4.293   7.497  20.114 -0.3557  0.2587  0.5019
10217S        S17021   4.389   1.826  25.134  0.6511  0.0951 -0.1826
10218S        S17022   4.953  11.780  21.163 -0.5025  0.1525  0.4418
10219S        S17023   6.705  10.297  24.535 -0.1061 -0.3288  0.2707
10220S        S17024   9.136   3.420  15.540  0.5451 -0.1827  0.0061
10221S        S17025   3.574   1.533  21.835 -0.5475  0.2603 -0.2813
10222S        S17026   1.374  11.291  18.811  0.3563  0.0906 -0.0427
10223S        S17027  10.042   7.880  14.719  0.0147  0.1657 -0.2658
10224S        S17028   1.173   0.238  19.207 -0.1859 -0.2413  0.2532
10225S        S17029  10.742  11.298  25.187 -0.0098  0.7687  0.4411
10226S        S17030   3.680   0.455  28.375  0.1608  0.3661  0.0855
10227S        S17031   7.872   3.778  25.668  0.1045 -0.2509 -0.2326
10228S        S17032   3.059   3.635  26.893 -0.0348  0.6608  0.4631
10229S        S17033   3.501  12.354  12.144 -0.2165 -0.3876  0.0040
10230S        S17034  11.584   3.788  25.533  0.1985 -0.1355  0.4321
10231S        S17035   3.225   7.456  14.014  0.1186 -0.1013  0.1330
10232S        S17036   7.008   5.277  16.189 -0.4594  0.0347  0.1327
10233S        S17037   8.985   4.194  12.593 -0.0620 -0.2104 -0.1423
10234S        S17038   7.883   7.066  29.135  0.4727 -0.3653 -0.1650
10235S        S17039   4.829  11.837  26.596 -0.2973 -0.8568  0.5833
10236S        S17040   8.266   4.639  15.783 -0.1204  0.0472 -0.1195
10237S        S17041   1.748  11.815  24.344  0.4402 -0.0416  0.0587
10238S        S17042   9.831   6.587  22.315  0.2001 -0.2652 -0.0589
10239S        S17043  12.113   9.591  27.403  0.0580 -0.4120 -0.2765
10240S        S17044   9.743   1.488  17.725 -0.6193 -0.4086 -0.2982
10241S        S17045   0.958  10.101  24.261 -0.0851 -0.0717  0.4766
10242S        S17046   9.672   9.678  18.158 -0.1471 -0.0076  0.6007
10243S        S17047   8.696  12.020  29.143 -0.7754  0.1631  0.4525
10244S        S17048   8.378   8.424  13.230 -0.3906 -0.0432  0.6767
10245S        S17049  11.178  11.147  15.398 -0.0388  0.1322  0.2260
10246S        S17050   8.363   0.461  12.646  0.0324 -0.1064 -0.0172
10247S        S17051   8.394   3.088  31.478  0.3262  0.2207  1.1074
10248S        S17052  10.855   9.828  14.214 -0.0683  0.0038  0.5392
10249S        S17053   0.634   8.887  20.126  0.5155  0.1891 -0.1403
10250S        S17054   3.497   4.862  16.861 -0.1883  0.3939 -0.2211
10251S        S17055   2.450   8.806  12.878  0.4413 -0.1526  0.1715
10252S        S17056   0.379   6.117  16.273  0.4511  0.0622  0.1607
10253S        S17057   6.379  10.695  13.315  0.4075  0.3368  0.5325
10254S        S17058   4.433  10.203  14.813 -0.2318 -0.0304 -0.2253
10255S        S17059   7.881   6.373  12.435 -0.0696 -0.0298 -0.7498
10256S        S17060   4.563  11.719  20.263 -0.4048 -0.7151  0.1674
10257S        S17061   4.724   6.414  23.803 -0.2194  0.1686  0.3871
10258S        S17062  12.033   0.773  20.686  0.4715  0.4117 -0.1839
10259S        S17063   6.337   7.731  21.004 -0.1232  0.2524 -0.0218
10260S        S17064  11.709  10.389  17.639 -0.0286  0.2373 -0.3510
10261S        S17065   4.287   4.325  13.040 -0.0182 -0.4491 -0.1042
10262S        S17066   3.237   6.010  33.552 -0.1981 -0.3144  0.2146
10263S        S17067   1.567   4.889  22.999  0.5836 -0.5782  0.5329
10264S        S17068   5.197   1.291  30.594 -0.2310  0.2050  0.2924
10265S        S17069   4.729   5.383  13.651 -0.0427 -0.1228  1.0548
10266S        S17070   2.029   3.937  14.657  0.2684 -0.1662 -0.3532
10267S        S17071  10.462   2.453  24.859  0.3056 -1.1675  0.3964
10268S        S17072  10.590   9.283  27.006  0.3089 -0.0187  0.5957
10269S        S17073   3.942   9.395  19.378  0.1305  0.2560 -0.2808
10270S        S17074   7.160  10.613  15.493  0.0318  0.1734 -0.3230
10271S        S17075   4.028  10.873  20.603  0.0229  0.1029  0.1894
10272S        S17076   6.720   7.378  29.986 -0.0665 -0.1720  0.1713
10273S        S17077   8.534   0.917  25.823  0.3122  0.3184 -0.4144
10274S        S17078   6.966  10.051  17.184  0.2292 -0.1608  0.3365
10275S        S17079  10.958   5.146  25.585 -0.4258  0.1461 -0.0538
10276S        S17080   3.933   2.792  19.012  0.1233 -0.1515 -0.0699
10277S        S17081   0.352   9.002  26.810  0.1674  0.0296  0.2490
10278S        S17082  11.777   8.911  24.127 -0.5673  0.0885 -0.6645
10279S        S17083   3.501   3.881  28.945 -0.0778  0.6852  0.3560
10280S        S17084   9.875   3.228  26.217  0.0153  0.3715  0.0917
10281S        S17085   1.423  11.367  19.334 -0.4379 -0.0225 -0.2286
10282S        S17086   8.514   3.584  17.627 -0.4113  0.4569 -0.1066
10283S        S17087   6.696   3.076  16.690 -0.3874  0.1591 -0.6379
10284S        S17088   0.512   9.069  30.121 -0.1028 -0.2839 -0.0742
10285S        S17089   4.534   5.641  14.393 -0.7233  0.2315 -0.3134
10286S        S17090   6.124   8.158   5.376  0.3149 -0.3793  0.2383
10287S        S17091   5.596   5.224  18.738 -0.0695 -0.4821 -0.2511
10288S        S17092  10.449  11.792  22.994  1.0546 -0.3651  0.2392
10289S        S17093   6.271   9.077  24.874  0.0787  0.0116 -0.3752
10290S        S17094   0.342   2.827  28.141  0.4134 -0.2733  0.2776
10291S        S17095   5.647   3.697  24.088  0.3774 -0.4578 -0.1085
10292S        S17096   7.592   0.582  17.370  0.5068  0.6649 -0.0029
10293S        S17097   2.822   7.917  17.544  0.1348 -0.2350  0.2145
10294S        S17098   8.105   5.632  25.533  0.3664 -0.2197  0.4494
10295S        S17099   0.540   7.534  11.671  0.2154 -0.5553 -0.1522
10296S        S17100   3.165   7.583  17.750 -0.5804  0.2464 -0.0543
10297S        S17101   4.184   4.442  15.352  0.2253 -0.2045 -0.0141
10298S        S17102   3.027   9.531  17.711 -0.0240  0.4487 -0.2280
10299S        S17103  10.871   8.081  30.544 -0.0898  0.2572  0.2097
10300S        S17104   7.110   8.749  14.624 -0.4882 -1.0008 -0.3869
10301S        S17105   1.098   5.821  13.340  0.0836  0.0064  0.1900
10302S        S17106   9.417  11.631  30.414 -0.1345  0.7476 -0.0567
10303S        S17107   6.356   8.590  23.845  0.4285 -0.5286  0.5328
10304S        S17108   2.173   7.901  26.969  0.0454  0.8744 -0.4039
10305S        S17109   4.136  11.784  11.913 -0.4320  0.5258 -0.3539
10306S        S17110  10.776   1.853  13.047  0.1281  0.1406 -0.3726
10307S        S17111   9.521   6.329  19.664 -0.2204 -0.1034  0.0460
10308S        S17112   5.090   6.713  23.397 -0.0655  0.0330 -0.6117
10309S        S17113   9.362   2.717  16.250 -0.2542  0.1308 -0.2368
10310S        S17114   8.608   4.047  18.362 -0.3374 -0.1045 -0.4455
10311S        S17115   1.491   3.024  12.019  0.0100 -0.1301 -0.2189
10312S        S17116   7.062   4.961  19.984 -0.2708  0.0107 -0.2513
10313S        S17117   5.631  10.194  32.421 -0.3351 -0.4604 -0.4651
10314S        S17118   1.948  11.660  26.459  0.0175 -0.3171 -0.1489
10315S        S17119  11.328  11.156  18.922  0.4463 -0.0241 -0.1718
10316S        S17120   0.582   5.546  11.847  0.3400  0.2376 -0.3723
10317S        S17121   2.458   5.830  30.419  0.7021  0.0125  0.1620
10318S        S17122   9.901   0.653  26.155 -0.2148  0.1046  0.4988
10319S        S17123   7.771   2.096  30.457  0.3770 -0.3877  0.0750
10320S        S17124   5.198   0.264  16.444 -0.3953  0.3825 -0.2716
10321S        S17125   6.993   4.786  22.079  0.1503 -0.1259 -0.1609
10322S        S17126   5.162   3.757  23.896  0.2749 -0.0350 -0.5200
10323S        S17127  11.394   4.449  20.751 -0.1068  0.1719  0.4513
10324S        S17128   8.289   7.248  19.530  0.1959  0.0992 -0.4933
10325S        S17129   7.787   9.489  17.298 -0.3862  0.3771 -0.0110
10326S        S17130  10.043   3.384  20.310 -0.4430 -0.4584 -0.1246
10327S        S17131   9.128   0.979  12.356  0.1463  0.1415  0.0118
10328S        S17132   2.084   0.454  21.160  0.4793 -0.3689  0.3776
10329S        S17133   4.725  10.934  27.419 -0.9283 -0.1023 -0.2752
10330S        S17134  10.244  11.665  26.985  0.1772 -0.1881  0.0364
10331S        S17135  10.106   9.100  27.814 -0.3095 -0.0988 -0.6680
10332S        S17136   3.838   4.059  25.809  0.3816  0.1210  0.3814
10333S        S17137  11.137   9.827  16.868 -0.4318 -0.4520 -0.2212
10334S        S17138   4.234  12.268  21.757 -0.3881 -0.3861  0.0022
10335S        S17139   8.521   5.569  17.767  0.0014  0.4615 -0.2588
10336S        S17140   1.150   2.893  17.902 -0.0018  0.0919  0.4177
10337S        S17141   2.417   1.613  30.029  0.0681  0.6637  0.5998
10338S        S17142   1.029   3.473  26.770 -0.6325 -0.3856  0.6296
10339S        S17143   6.221   7.482  27.468  0.0332 -0.3231  0.1827
10340S        S17144   1.041   5.068  14.898  0.3952 -0.5994  0.2786
10341S        S17145   7.356   3.817  12.225 -0.0196 -0.2349 -0.0264
10342S        S17146   4.102   3.940  22.426 -0.2439 -0.0951  0.0932
10343S        S17147   6.302  12.301  20.327 -0.1019  0.0434 -0.0151
10344S        S17148   3.228   3.860  17.910  0.2852  0.3095  0.1881
10345S        S17149   7.976   0.328  11.645 -0.1495 -0.2783  0.2643
10346S        S17150   4.348   9.998  16.595 -0.2784  0.0752  0.2532
10347S        S17151  11.110   7.119  30.423 -0.0527  0.3561 -0.2870
10348S        S17152   4.518   1.671  19.473 -0.0755 -0.4491 -0.3875
10349S        S17153   0.548  10.129  26.127 -0.3601  0.4423  0.0252
10350S        S17154   5.611   0.890  19.495 -0.3308  0.1786  0.2390
10351S        S17155   5.291   0.537  15.016 -0.1730 -0.3517  0.1206
10352S        S17156   7.690  12.287  14.713 -0.3109  0.2282  0.2081
10353S        S17157   2.922   1.239  21.653  0.2045  0.1645  0.2409
10354S        S17158   8.295   2.394  17.501  0.1041 -0.1199  0.6483
10355S        S17159  10.590   8.412  22.460 -0.0927 -0.2209 -0.7412
10356S        S17160   6.971   2.181  42.167 -0.1517 -0.3900  0.5618
10357S        S17161   9.367   2.569  31.491 -0.2246 -0.3308 -0.0634
10358S        S17162   8.061   4.739  17.244  0.2532 -0.1061  0.1159
10359S        S17163   9.219   9.822  19.037 -0.2435 -0.1722  0.2734
10360S        S17164   7.444   0.540  26.674  0.3151 -0.1618  0.4740
10361S        S17165  11.879   9.376  19.965  0.2046 -0.3504  0.0989
10362S        S17166   6.797   3.570  21.228 -0.0024 -0.0327 -0.1500
10363S        S17167   3.300   4.117  25.397 -0.5440  0.0260 -0.3883
10364S        S17168   7.024   2.609  29.905 -0.1753  0.0130  0.5950
10365S        S17169   8.958   9.141  29.042 -0.0472 -0.3904 -1.0587
10366S        S17170   9.062   8.720  13.844  0.1781 -0.2170 -0.0038
10367S        S17171   3.225   8.148  19.034  0.0837  0.2139  0.2003
10368S        S17172   8.589   2.442  20.145 -0.2273  0.0366 -0.0633
10369S        S17173   8.240   1.656  14.896 -0.7084  0.1511  0.3672
10370S        S17174   8.958   7.281  20.137  0.3203 -0.2430 -0.3778
10371S        S17175  10.369  10.721  30.602 -0.1440 -0.0435 -0.4690
10372S        S17176  12.086   4.502  21.654  0.0024 -0.0041  0.2210
10373S        S17177   7.873   7.304  16.665  0.3931  0.0722  0.0148
10374S        S17178   4.348   1.265  13.746 -0.5802  0.2078 -0.3713
10375S        S17179  11.751   7.260  16.421 -0.5667 -0.0268  0.2295
10376S        S17180   5.728   9.070  18.327  0.4874  0.1194  0.1251
10377S        S17181   4.228   0.961  19.111  0.2260  0.1161 -0.4503
10378S        S17182   9.498   7.525  24.826 -0.4006  0.1881 -0.7030
10379S        S17183   9.518   3.682  18.493  0.4541  0.0107  0.1841
10380S        S17184   7.509  10.675  12.558 -0.0644 -0.4842  0.5737
10381S        S17185  10.901   1.089  23.360  0.6090 -0.5000 -0.2128
10382S        S17186  11.742   0.710  26.262 -0.1741  0.0236 -0.0549
10383S        S17187  11.876   4.287  24.828  0.2932  0.3357 -0.1427
10384S        S17188   6.142   9.675  25.714  0.5301  0.5674 -0.3643
10385S        S17189   0.717  12.095  25.229  0.4664 -0.3640 -0.0078
10386S        S17190   0.488  12.212  19.625 -0.2011 -0.3002 -0.1406
10387S        S17191   1.876  10.072  15.652  0.1272  0.1089  0.0419
10388S        S17192  11.506   4.745  12.377  0.2433 -0.0425 -0.1900
10389S        S17193   5.925   8.089  16.461  0.3463 -0.1243 -0.2964
10390S        S17194   6.906  10.830  14.013  0.0742  0.2262  0.0355
10391S        S17195   3.235  12.264  22.013 -0.3976  0.0460  0.2298
10392S        S17196  10.156   5.826  22.290 -0.3227  0.6045 -0.0813
10393S        S17197   8.981  11.905  16.392  0.3006 -0.0690  0.1911
10394S        S17198   8.212   2.965  27.122  0.3396 -0.5311  0.5858
10395S        S17199  11.675   6.369  14.434 -0.2119 -0.4265 -0.1018
10396S        S17200   1.094  10.202  31.700 -0.0333  0.1201 -0.3421
10397S        S17201   9.345   5.699  23.668  0.5422 -0.2099  0.5543
10398S        S17202   7.374   5.627  28.892  0.4497  0.1277 -0.6650
10399S        S17203   1.570   8.668  16.362  0.1399 -0.0643 -0.5280
10400S        S17204   6.124   2.495  27.885 -0.4223 -0.3778 -0.7925
10401S        S17205   6.902   7.756  15.982  0.2317 -0.3376  0.2944
10402S        S17206   9.113  10.342  23.787 -0.2203  0.6839  0.3135
10403S        S17207   9.292  10.774  14.126 -0.1128 -0.0014 -0.1451
10404S        S17208   5.144   2.455  25.257  0.1702 -0.6042 -0.1623
10405S        S17209   1.052  11.228  21.930 -0.1278 -0.0910  0.1153
10406S        S17210   8.898   7.386  18.063 -0.2138 -0.0068 -0.3913
10407S        S17211   2.204   8.217  13.448 -0.3546 -0.1464  0.0574
10408S        S17212   9.378   5.817  20.560 -0.2776  0.0750 -0.2604
10409S        S17213   2.360  11.738  21.499  0.4848 -0.9493 -0.3790
10410S        S17214  11.228  11.123  23.388 -0.0899  0.5163  0.2209
10411S        S17215  10.944   6.762  23.754  0.4620 -0.0068 -0.0319
10412S        S17216  10.935   1.508  23.073  0.1120 -0.0157  0.0610
10413S        S17217  11.267   5.657  12.526 -0.1676  0.2551  0.1844
10414S        S17218   8.515   5.161  21.241 -0.0226  0.1789 -0.2404
10415S        S17219   5.296   7.105  22.489  0.0255  0.3647  0.1158
10416S        S17220   3.090   5.974  27.578  0.6026  0.1478  0.0916
10417S        S17221  11.403   5.852  20.290 -0.1662  0.0792  0.0892
10418S        S17222   0.335   6.026  22.356 -0.1841  0.2583  0.2547
10419S        S17223  12.175   0.193  17.852 -0.2051 -0.1114  0.0210
10420S        S17224   6.196   7.537  15.701  0.0807 -0.3591  0.1121
10421S        S17225   4.024  11.187  47.322 -0.0357  0.0269  0.2024
10422S        S17226   3.874   1.132  22.655  0.5703 -0.8988 -0.1885
10423S        S17227   0.689   3.998  12.148 -0.4581  0.1704 -0.0160
10424S        S17228  11.532   2.942  23.046  0.0852 -0.5985 -0.1014
10425S        S17229   0.357   0.879  32.459  0.1698 -0.8013  0.3950
10426S        S17230   8.742   6.472  29.258  0.7702 -0.3486 -0.3208
10427S        S17231   9.580   0.809  27.859 -0.4391 -0.2968  0.1258
10428S        S17232   3.388   5.062  13.314 -0.1070  0.1082 -0.2057
10429S        S17233   4.508   5.526  28.248 -0.5777  0.3518  0.2433
10430S        S17234   3.303   4.660  17.276 -0.3975 -0.1329 -0.2638
10431S        S17235   1.415  11.628  31.725 -0.6918 -1.0346 -0.0295
10432S        S17236   7.715  11.340  22.654  0.2448  0.1276  0.1115
10433S        S17237  10.074   1.021  20.485  0.0038  0.4677  0.0113
10434S        S17238   3.373  10.483  15.512  0.9894  0.5386  0.2459
10435S        S17239   3.704   0.705  24.919 -0.1166  1.1890 -0.4334
10436S        S17240   4.665   3.081  24.485  0.1789  0.2499 -0.0849
10437S        S17241  11.772   4.471  27.652  0.1265 -0.7241 -0.8713
10438S        S17242   4.430   1.955  12.292  0.3046  0.4545 -0.3176
10439S        S17243   6.930   6.446  24.717 -0.0360  0.4566  0.2414
10440S        S17244   4.550   4.442  28.076 -0.0672  0.2501 -0.2217
10441S        S17245   0.339   2.400  24.583 -0.0530 -0.2411 -0.2334
10442S        S17246   7.898   8.243  19.082  0.4614 -0.7966 -0.3822
10443S        S17247  11.892   6.034  14.161 -0.2465  0.5202 -0.1485
10444S        S17248   5.066   3.075  18.382  0.4288 -0.5264  0.0474
10445S        S17249   0.289   9.181  13.795  0.2577  0.1865  0.1238
10446S        S17250   7.353   1.921  19.721 -0.2807 -1.0925  0.2739
10447S        S17251   7.821   9.860  28.124  0.4012  0.2762 -0.3651
10448S        S17252   2.453   8.597  12.001  0.0466 -0.0993 -0.0222
10449S        S17253   6.922   7.915  16.846 -0.3154 -0.1437 -0.2103
10450S        S17254   9.533  11.758  19.922 -0.1625 -0.1716 -0.1723
10451S        S17255   1.007   0.794  12.207 -0.1336  0.0341 -1.0639
10452S        S17256   8.666   1.457  24.685  0.3364 -0.4306  0.0867
10453S        S17257   9.162   4.815  15.243 -0.3945 -0.2110  0.2223
10454S        S17258   8.202   1.915  30.136 -0.3508  0.6304 -0.4086
10455S        S17259   2.535   7.896  18.574 -0.1066  0.0489 -0.1711
10456S        S17260   4.991   9.916  18.561 -0.3325 -0.0842 -0.0529
10457S        S17261   5.709   8.363  16.095 -0.1265  0.6217 -0.3121
10458S        S17262   3.768  11.520  11.587  0.2726  0.2831 -0.0140
10459S        S17263   6.548   6.559  14.098  0.1226 -0.0687  0.2417
10460S        S17264   5.845   7.163  13.891 -0.4573  0.5398 -0.1061
10461S        S17265  11.899  10.999  21.102  0.0198 -0.1081 -0.6827
10462S        S17266   0.913   1.135  28.672 -0.0742 -0.7266 -0.1769
10463S        S17267   3.072   4.489  26.033 -0.4357 -0.0778  0.2108
10464S        S17268   6.160   1.833  27.085  0.4347  0.2213 -0.0577
10465S        S17269   9.539  12.141  18.710 -0.1660 -0.2397  0.0025
10466S        S17270   4.336   1.295  18.095  0.2403  0.1176  0.1639
10467S        S17271   2.958   4.447  16.397  0.0111 -0.4684  0.0913
10468S        S17272  10.894   8.404  13.363 -0.1200  0.1448 -0.2333
10469S        S17273   3.314   3.660  15.015  0.5900 -0.1486 -0.1155
10470S        S17274   7.495   1.238  20.449 -0.3857  0.3852  0.4760
10471S        S17275   6.206   6.693  22.855 -0.2532  0.1936  0.1361
10472S        S17276   6.008  10.412  30.829  0.6643 -0.1862 -0.1688
10473S        S17277   4.744   6.434  12.453 -0.0256  0.4817 -0.5326
10474S        S17278   2.016   0.206  30.696  0.2437 -0.1809  0.1016
10475S        S17279   9.819   3.150  29.114  0.0227 -0.1037 -0.3332
10476S        S17280   6.859   0.426  25.694  0.6988 -0.1926 -0.4702
10477S        S17281  11.868   8.596  31.063  0.4445  0.5790  0.2017
10478S        S17282  10.319   2.115  16.048  0.0653 -0.1193 -0.0494
10479S        S17283  11.822   7.035  15.774 -0.1283  0.0971  0.4951
10480S        S17284   9.117   6.045  29.258  0.2214 -0.3024  0.2017
10481S        S17285   4.453   4.187  31.652  0.4532  0.3456 -0.0092
10482S        S17286   3.447   8.011  15.457  0.0815  0.5790  0.2358
10483S        S17287  11.129   5.444  20.493 -0.3298  0.3145  0.4421
10484S        S17288  10.009   1.240  12.841 -0.1401 -0.0996 -0.3226
10485S        S17289  12.233   1.327  16.518  0.2783 -0.1865  0.2474
10486S        S17290   6.642   9.735  29.501 -0.2582  0.4532  0.1941
10487S        S17291   7.714   5.523  19.653  0.1182 -0.4878  0.1666
10488S        S17292  10.938   2.489  14.429 -0.5673  0.1458  0.4399
10489S        S17293   2.251   4.104  15.461  0.3693 -0.1256  0.0561
10490S        S17294   7.452   4.063  16.271  0.1481 -0.1816 -0.0244
10491S        S17295   9.071  10.064  18.595 -0.2148 -0.2388  0.3234
10492S        S17296   9.772   8.100  22.292 -0.2892 -0.0922  0.0704
10493S        S17297   5.728   9.541  11.461  0.0514  0.1138 -0.4480
10494S        S17298   6.507   4.876  14.870  0.0322  0.4398  0.2104
10495S        S17299   5.541   3.990  22.327  0.0909  0.2581 -0.0650
10496S        S17300  11.598   1.108  19.692 -0.1902 -0.2832 -0.1274
10497S        S17301   5.140  12.212  13.990 -0.0760 -0.3169  0.0342
10498S        S17302   1.856   9.078  23.051 -0.2395 -0.5404 -0.0750
10499S        S17303   5.572  11.271  13.756 -0.1501  0.4712 -0.3066
10500S        S17304   7.189   1.373  21.247  0.4469 -0.3379  0.0168
10501S        S17305   7.711   8.038  11.968 -0.5099 -0.1629 -0.2064
10502S        S17306   0.536   8.884  29.591 -0.0759  0.4345  0.2745
10503S        S17307   0.838   6.847  13.852 -0.5516 -0.3366  0.1167
10504S        S17308   2.483  11.985  17.798  0.1514  0.1089  0.1358
10505S        S17309  11.062   3.034  17.261 -0.2931  0.5554  0.0309
10506S        S17310  10.920   5.276  19.236  0.3627  0.1691  0.1066
10507S        S17311  11.154  11.611  25.786  0.0415 -0.5493 -0.3256
10508S        S17312   9.173  11.442  27.398 -0.0411  0.4333  0.3340
10509S        S17313   8.131   1.699  18.722 -0.0073  0.0515  0.1134
10510S        S17314   2.274  10.637  30.521 -0.0672  0.5233 -0.2503
10511S        S17315   8.944   4.348  11.337 -0.2841 -0.2845 -0.0308
10512S        S17316   6.959   5.825  30.494 -0.3868  0.2590  0.2533
10513S        S17317   6.582   0.351  31.583 -0.2020  0.2467 -0.0873
10514S        S17318  10.379   0.658  26.284 -0.4942  0.8460  0.7247
10515S        S17319   8.697   6.836  20.994  0.2259  0.1785  0.1295
10516S        S17320   1.635   6.989  18.968 -0.2863  0.0600 -0.1735
10517S        S17321   7.427   4.561  12.834 -0.5474  0.4351 -0.7773
10518S        S17322   9.390   9.502  18.597 -0.2244  0.1977 -0.0088
10519S        S17323   6.251  11.503  30.019  0.5766  0.2157 -0.0026
10520S        S17324   2.642   3.989  21.314  0.3246  0.1269  0.1023
10521S        S17325   4.037   6.492  29.530  0.2069 -0.0311  0.4374
10522S        S17326   2.996   0.814  27.446  0.1955 -0.1148 -0.3338
10523S        S17327  11.560   3.019  25.650  0.1267  1.2495 -0.3653
10524S        S17328  10.899   6.831  15.460  0.0892  0.0315  0.1538
10525S        S17329  11.689   8.184  16.651  0.2360 -0.4672 -0.1658
10526S        S17330   9.609   3.225  27.735 -0.0352 -0.4008 -0.5076
10527S        S17331   4.410   0.768  26.341  0.0761 -0.3435 -0.1188
10528S        S17332  12.138   8.289  18.048  0.1888 -0.1876 -0.6112
10529S        S17333   7.744  12.193  15.320  0.1585 -0.0646 -0.6461
10530S        S17334   7.608  10.367  41.423  0.1406 -0.1718  0.2857
10531S        S17335   0.086   5.771  13.712 -0.1316  0.0713  0.0027
10532S        S17336   2.060   5.216  15.178 -0.6689  0.3229 -0.0640
10533S        S17337   9.497   7.961  16.979 -0.3183  0.0043 -0.5090
10534S        S17338   5.904   0.141  25.442 -0.6714  0.2449 -0.5097
10535S        S17339  10.152   3.640  14.150  0.3441 -0.1974  0.1680
10536S        S17340   3.346   7.625  19.060 -0.1054  0.0004 -0.2344
10537S        S17341   4.402   3.082  18.160 -0.3716  0.0054 -0.1130
10538S        S17342  10.948   6.900  16.654 -0.2020 -0.2836  0.4756
10539S        S17343  10.291   3.820  29.783 -0.0874 -0.5512 -0.4293
10540S        S17344   9.985   1.133  12.210 -0.0100 -0.0477 -0.4856
10541S        S17345   2.614   9.194  22.953  0.7226 -0.0514  0.2462
10542S        S17346   1.096   8.198  18.336 -0.3141  0.0417 -0.0390
10543S        S17347   0.434   8.919  11.503 -0.2294 -0.5489  0.3445
10544S        S17348  10.855   0.600  27.822  0.0739 -0.2652 -0.5647
10545S        S17349   8.018   2.863  28.402 -1.0044 -0.2073 -0.3419
10546S        S17350   0.272   5.306  13.199 -0.3901  0.0679  0.0772
10547S        S17351   8.211   2.077  30.807 -0.6019 -0.2998 -0.5441
10548S        S17352   5.567   1.427  13.241  0.5102 -0.2815  0.1318
10549S        S17353   4.910  10.182  11.948  0.5181  0.0608 -0.1252
10550S        S17354  10.176   1.209  27.634 -0.7497 -0.2923 -0.2266
10551S        S17355   7.511  11.665  23.035 -0.0764  0.0517  0.1468
10552S        S17356   3.631   6.760  27.666  0.4432  0.3458 -0.0031
10553S        S17357   3.376   6.763  29.604  0.0022 -0.3946  0.3785
10554S        S17358   7.572   0.399  22.185 -0.0043 -0.4285 -0.0612
10555S        S17359   8.743   9.678  20.079 -0.3432  0.0597 -0.1693
10556S        S17360   5.288  10.645  14.728  0.9338  0.3556 -0.0828
10557S        S17361   2.133  10.615  19.145  0.0412  0.0959 -0.4156
10558S        S17362   2.902   4.084  13.792  0.2153  0.3402  0.0379
10559S        S17363  11.205   2.852  14.303  0.0299 -0.3959 -0.3793
10560S        S17364   4.346   9.079  16.071  0.0993  0.1443  0.6065
10561S        S17365   7.500   7.039  17.005 -0.0673  0.2844  0.2374
10562S        S17366   2.013   2.218  22.145 -0.1277  0.4464 -0.1350
10563S        S17367   8.078   6.991  32.016 -0.8431  0.0068  0.4649
10564S        S17368   3.788  10.941  15.592  0.0609  0.2844 -0.0709
10565S        S17369   4.845   4.788  16.433  0.0095 -0.2182  0.0391
10566S        S17370   7.167   2.213  10.305  0.2881 -0.0582  0.1033
10567S        S17371   2.176   0.968  12.737 -0.3051 -0.2559 -0.1253
10568S        S17372   2.027  11.282  25.069 -0.4418 -0.5964  0.4736
10569S        S17373  11.347  12.240  16.861  0.2135 -0.1285 -0.4527
10570S        S17374   2.815   1.950  11.877  0.3965  0.0498 -0.0085
10571S        S17375   2.156   0.605  20.243 -0.1372 -0.1791  0.2271
10572S        S17376   4.540   4.042  28.368 -0.4381  0.3444  0.1269
10573S        S17377   6.640   7.900  26.201  0.2642  0.4376 -0.1424
10574S        S17378   6.211   2.697  28.352  0.4595  0.1270  0.1561
10575S        S17379   7.692   2.167  23.185  0.3110  1.0602 -0.6546
10576S        S17380   0.579   6.626  16.463  0.0203  0.6891  0.3495
10577S        S17381   3.306   2.359  32.033 -0.0390  0.1128  0.8042
10578S        S17382   5.807   1.127  32.550 -0.2563  0.0014  0.0890
10579S        S17383   7.066   4.980  13.573 -0.3687 -0.2586 -0.1267
10580S        S17384   3.390   9.972  14.572  0.0844 -0.0042 -0.0473
10581S        S17385   4.307  11.438  11.357 -0.2431  0.5195 -0.1930
10582S        S17386   4.154   1.155   4.788 -0.3991 -0.4664  0.4839
10583S        S17387  12.272  11.770  16.522  0.4390 -0.3656 -0.2789
10584S        S17388   8.701  11.004  17.466  0.2240  0.3275 -0.4651
10585S        S17389   6.871  10.514  11.998  0.1846  0.4002  0.2919
10586S        S17390   4.546   0.769  13.798 -0.1967  0.4378 -0.1013
10587S        S17391   5.631   4.460  13.480 -0.0271  0.1197  0.0754
10588S        S17392   8.217   1.515  24.424 -0.4707  0.7276  0.3856
10589S        S17393   2.001  10.168  13.474 -0.2836  0.0729 -0.2003
10590S        S17394   0.991   5.453  28.622  0.1632  0.0199 -0.8787
10591S        S17395  11.237  10.750  25.162 -0.0124 -0.0135 -0.2006
10592S        S17396  10.630   8.024  11.940 -0.2873  0.5536  0.1536
10593S        S17397   6.457   4.331  17.994  0.1750 -0.3459 -0.1772
10594S        S17398   5.823   3.258  27.594  0.2399 -0.5054  0.1488
10595S        S17399  10.802   1.101  12.799 -0.0565 -0.0125  0.3091
10596S        S17400   8.952   1.816  25.588 -0.5515 -0.4284 -0.3450
10597S        S17401   6.644   4.698  24.886 -0.3166  0.2084 -0.4442
10598S        S17402   8.189   0.635  30.956 -0.0318  0.2114  0.3245
10599S        S17403   1.620   5.699  17.810  0.0627  0.4668 -0.0424
10600S        S17404  11.378   1.069  30.494 -1.2882 -0.3244 -0.6472
10601S        S17405   1.936   9.413  18.798 -0.0394  0.1605  0.4237
10602S        S17406   0.214  10.649  11.676  0.1599  0.1069  0.3086
10603S        S17407   2.018   6.083  15.418 -0.4580 -0.1270  0.2334
10604S        S17408   2.214   8.290  16.670  0.0451 -0.3993 -0.1825
10605S        S17409  10.265   7.179  23.861 -0.3147 -0.1018  0.0131
10606S        S17410   4.037   4.815  28.922 -0.5046 -0.0713 -0.2705
10607S        S17411  10.431   0.841  29.101  0.0432  0.3945  0.2590
10608S        S17412   8.839  10.822  13.093 -0.0161 -0.0911  0.0040
10609S        S17413   5.501   0.498  29.268  0.0957  0.1799 -0.0106
10610S        S17414   1.942   2.747  12.117  0.1546  0.1971  0.1762
10611S        S17415   1.696   2.432  15.346  0.0641 -0.0545 -0.2764
10612S        S17416   8.405   9.458  16.503  0.4100 -0.0354 -0.4798
10613S        S17417   0.781  11.541  17.376 -0.0398 -0.2450 -0.3309
10614S        S17418   6.325   8.763  11.200  0.1958  0.0833 -0.2538
10615S        S17419   3.801  11.946  22.759 -0.0703  0.1944 -0.0634
10616S        S17420   0.655   9.042  12.817  0.2608  0.2501 -0.0572
10617S        S17421   3.329   1.541  32.217 -0.7312  0.6310  0.2056
10618S        S17422  11.729   8.780  19.425 -0.3554 -0.3624  0.4467
10619S        S17423   9.656   8.054  16.436  0.0597  0.0541 -0.1201
10620S        S17424   3.341   4.007  24.397 -0.1142  0.3994  0.4996
10621S        S17425  10.121   1.430  31.343 -0.3978  0.1832 -0.0499
10622S        S17426  11.758   6.977  23.585 -0.5537  0.4581 -0.3521
10623S        S17427  11.696   8.932  11.814  0.3965  0.0108  0.2645
10624S        S17428   1.364   7.921  14.393  0.3412  0.0296 -0.0383
10625S        S17429  12.088  10.770  15.504 -0.3198 -0.2899 -0.2270
10626S        S17430   7.843  10.001  23.621 -0.0102  0.4415 -0.1551
10627S        S17431   3.871   2.028  16.178 -0.1351 -0.2430  0.3090
10628S        S17432   3.600   6.188  29.189 -0.3733  0.0409  0.1783
10629S        S17433   0.318   4.067  29.163  0.1471  0.3770 -0.7203
10630S        S17434   2.674  11.352  27.646 -0.2051  0.6147 -0.3879
10631S        S17435   4.935   8.056  23.676 -0.1563 -0.4759  0.2426
10632S        S17436   6.601   9.460  34.676 -0.0714  0.2158 -0.1104
10633S        S17437   7.634   3.229  15.312  0.7534 -0.1461 -0.0256
10634S        S17438   1.175   8.781  14.281 -0.1122  0.2658 -0.2381
10635S        S17439  10.185   3.201  23.298  0.3019 -0.2698  0.1381
10636S        S17440   0.216   2.845  12.380 -0.3969 -0.1444 -0.0049
10637S        S17441   7.048  11.134  15.459 -0.2848 -0.3696  0.2517
10638S        S17442   1.458   6.844  26.757  0.0344  0.3714  0.3463
10639S        S17443   4.594   4.516  12.501  0.1628  0.2134 -0.2966
10640S        S17444  10.281   1.553  19.269 -0.1509  0.4562 -0.0158
10641S        S17445   9.366   8.946  20.385  0.1101 -0.1152 -0.2640
10642S        S17446  11.937   7.537  11.910 -0.1811 -0.3066  0.0542
10643S        S17447  12.163   4.775  21.273  0.2540  0.0892 -0.1825
10644S        S17448  11.045  11.413  14.162 -0.3793 -0.2464  0.2235
10645S        S17449   3.315   5.278  15.458 -0.3260 -0.3767  0.7709
10646S        S17450   3.779   2.999   2.848 -0.2943 -0.1249  0.2938
10647S        S17451   2.794   0.520  29.634  0.4538  0.7076 -0.4628
10648S        S17452  12.310  10.314  16.448 -0.7663 -0.0250 -0.2204
10649S        S17453   1.738   8.392  31.122  0.1240  0.3247  0.1885
10650S        S17454   2.396   9.302  18.351 -0.3144 -0.1977  0.4682
10651S        S17455   2.608   4.507  13.745  0.4932 -0.2188 -0.2954
10652S        S17456   7.078   9.109  11.984  0.0395  0.0401  0.0458
10653S        S17457   4.420   8.000  26.671  0.1893 -0.8336  0.1748
10654S        S17458   1.058   0.586  24.614  0.0628  0.1269 -0.4694
10655S        S17459  10.030   6.435  25.319  0.3188  0.1449  0.2825
10656S        S17460   1.670   2.142  21.678  0.3289  0.1523 -0.2855
10657S        S17461   8.560   1.598  19.813  0.1554 -0.1171 -0.1018
10658S        S17462  10.665   8.082  17.666  0.1062 -0.1008  0.1190
10659S        S17463   1.749   0.403  25.438  0.0534 -0.6238  0.0919
10660S        S17464   9.133  10.799  29.867 -0.0153  0.0614  0.2263
10661S        S17465   0.753   2.201  30.530  0.2094  0.0483 -0.0776
10662S        S17466   6.588   1.617  26.835 -0.1538  0.0309  0.6423
10663S        S17467   3.739   3.757  17.170  0.1641 -0.3946  0.5316
10664S        S17468   4.432   5.176  22.688 -0.5384  0.1553  0.0876
10665S        S17469   2.398   8.673  23.840 -0.1375 -0.0439  0.4940
10666S        S17470   2.569   5.797  21.088  0.2811 -0.2363  0.0479
10667S        S17471   2.340  10.737  28.269 -0.2280 -0.3147 -0.1214
10668S        S17472   3.548   1.860  26.509  0.7841  0.1230  0.5299
10669S        S17473   4.467   5.481  12.465  0.0423 -0.2180 -0.6412
10670S        S17474  11.042   2.557  30.135 -0.3751 -0.3219  0.5359
10671S        S17475  11.956   7.945  30.003  0.3147  0.2317  0.2263
10672S        S17476   9.819   5.615  14.887 -0.1964  0.1014  0.1096
10673S        S17477   8.646   8.446  17.228 -0.2089  0.0243 -0.2156
10674S        S17478  10.064   7.691  16.136 -0.1663  0.4585  0.1389
10675S        S17479  11.398   4.341  31.942 -0.0899 -0.0331 -0.3180
10676S        S17480   0.877   6.413  14.644 -0.0918 -0.2674 -0.0828
10677S        S17481  10.576   2.601  27.558 -0.3741 -0.0995 -0.3591
10678S        S17482   1.719   8.581  30.624  0.1673  0.1981  0.3621
10679S        S17483   6.677   9.667  19.916 -0.1288 -0.1950  0.0412
10680S        S17484   8.254   8.015  13.687  0.3913  0.0457  0.1368
10681S        S17485  11.158   6.069  24.938 -0.8271  0.2087 -0.1171
10682S        S17486   5.426  12.120  25.705 -0.1296 -0.2089  0.1153
10683S        S17487   0.613  12.078  29.359 -0.4099 -0.0516 -0.1295
10684S        S17488   3.286   3.546  27.956 -0.0208  0.4462  0.2453
10685S        S17489  11.875   3.832  28.028  0.0561  0.5360 -0.1754
10686S        S17490  10.812   3.461  25.604  0.1375  0.0327 -0.2501
10687S        S17491   0.477   1.181  23.403  0.3669  0.7660  0.2911
10688S        S17492   9.169   7.648  12.342 -0.2452  0.0483 -0.0280
10689S        S17493  12.028   8.635  12.746 -0.2237  0.4674 -0.3739
10690S        S17494   6.337   9.536  26.537  0.3765 -0.4237  0.2595
10691S        S17495   5.348   9.604  20.541 -0.3162  0.1506  0.2199
10692S        S17496   2.068   8.337  17.335  0.0177  0.1756 -0.2726
10693S        S17497   6.990   6.532  16.237  0.0393 -0.0460  0.1171
10694S        S17498   5.668   6.076  18.373  0.0008 -0.4701 -0.0832
10695S        S17499   9.156  11.194  31.520  0.0593 -0.0047 -0.4673
10696S        S17500   6.318   3.204  20.292  0.1423 -0.2601  0.2343
10697S        S17501   9.882   3.086  17.154  0.1986 -0.0646 -0.0974
10698S        S17502  11.220  11.221  26.143  0.1542  0.4731  0.1480
10699S        S17503  11.358   0.761  26.735 -0.3597  0.4839  0.5369
10700S        S17504   2.764   6.192  28.062 -0.2579 -0.0583  0.0706
10701S        S17505  10.580   1.603  11.595  0.0284  0.2549 -0.0199
10702S        S17506   4.528  12.089  12.227  0.2995  0.2683 -0.0713
10703S        S17507   6.190  10.421  21.272  0.2614 -0.4122 -0.4963
10704S        S17508   3.789   1.876  23.935 -0.2363  0.2077  0.2573
10705S        S17509   0.185   1.871  28.213 -0.1705 -0.7049  0.1859
10706S        S17510  10.163   7.966  12.926  0.6060  0.1191 -0.4130
10707S        S17511   6.795  10.649  21.403  0.1046 -0.3664 -0.4963
10708S        S17512   1.870  12.000  25.902 -0.4449  0.3110  0.0601
10709S        S17513   2.574  11.495  23.742  0.2273  0.1534 -0.6532
10710S        S17514   2.941   1.611  26.969  0.0751 -0.0956 -0.3565
10711S        S17515   2.714   0.473  32.074 -0.5566  0.0137 -0.8495
10712S        S17516   1.203   8.362  26.038  0.3474 -0.0198 -0.2002
10713S        S17517   8.877   1.158  19.718 -0.0983  0.4643 -0.3135
10714S        S17518   8.445   4.369  28.786 -0.0355 -0.6733  0.2775
10715S        S17519   7.041   9.989  26.753 -0.3949  0.4146 -0.5125
10716S        S17520  12.229   7.864  28.293 -0.1335 -0.2611  0.5842
10717S        S17521  11.978   7.804  12.431 -0.4357  0.2096  0.1318
10718S        S17522   6.930  11.961  30.663  0.3705 -0.4229  0.2456
10719S        S17523   9.199   1.616  14.886 -0.4470 -0.4358 -0.3576
10720S        S17524  11.439  12.100  19.687 -0.0034  0.0527 -0.1325
10721S        S17525  10.623   4.449  32.273 -0.6298 -0.3783  0.1711
10722S        S17526   9.639  11.022  13.882 -0.5373 -0.0592  0.1648
10723S        S17527   4.088   5.912  28.639  0.1834  0.1111  0.1694
10724S        S17528   4.448   2.295  11.583 -0.0744  0.2926  0.1275
10725S        S17529   6.078   3.182  25.753  0.1929  0.7215 -0.3651
10726S        S17530   7.885   0.377  44.768  0.4083 -0.4916  0.1802
10727S        S17531   7.678   1.609  19.378 -0.2791  0.2434 -0.0675
10728S        S17532  12.111  11.051  18.629  0.1289  0.4981  0.3361
10729S        S17533   1.084   7.247  16.480 -0.0348 -0.4900 -0.2314
10730S        S17534   0.949   5.310  14.055 -0.0438 -0.1997  0.1566
10731S        S17535   8.613   1.383  12.489 -0.3509 -0.4764 -0.3036
10732S        S17536   9.235   4.436  15.581 -0.0636 -0.2613 -0.5130
10733S        S17537   5.398   4.098  13.070  0.4550  0.9330 -0.5109
10734S        S17538  11.048   8.620  20.851 -0.0179  0.1674  0.4119
10735S        S17539   3.184   7.933  28.500  0.5410  0.3377 -0.1037
10736S        S17540   1.506   5.952  13.665  0.1461 -0.5867 -0.0175
10737S        S17541   7.642  10.711  17.487  0.0237 -0.4219  0.4291
10738S        S17542   2.007  10.025  11.977 -0.1750 -0.2028  0.2465
10739S        S17543   5.518   0.856  18.944 -0.3717  0.1787  0.3206
10740S        S17544  10.643  10.520  12.625 -0.0043  0.2270  0.2551
10741S        S17545   3.426   0.763  28.721 -0.0196 -0.1821  0.2933
10742S        S17546   7.582   2.773  17.515 -0.3872  0.2324 -0.2569
10743S        S17547  11.358   8.439  21.406  0.4698 -0.0194  0.0498
10744S        S17548   7.427   5.130  15.844  0.0979  0.5374  0.0896
10745S        S17549   0.040  11.309  29.577  0.3016 -0.2187  0.6232
10746S        S17550   2.771   7.903  12.487 -0.4258 -0.1587  0.2131
10747S        S17551   6.045  10.410  12.990  0.3916  0.2792 -0.4452
10748S        S17552  10.854   8.288  14.785 -0.2519 -0.0228 -0.3130
10749S        S17553  10.566   0.805  12.431 -0.3564 -0.2904  0.1095
10750S        S17554   0.351   4.212  16.415  0.1760 -0.1783 -0.2573
10751S        S17555   8.916   4.763  30.362  0.6073 -0.1125 -0.1291
10752S        S17556   5.788   6.309  22.902  0.1585 -0.1166  0.1202
10753S        S17557  11.356   1.849  21.542  0.2014 -0.1654 -0.5547
10754S        S17558   6.348  11.271  14.852  0.7590 -0.1554 -0.5705
10755S        S17559   9.581  11.327  12.654 -0.1912  0.2242 -0.2140
10756S        S17560   0.750   2.282  31.677 -0.6260 -0.4197  0.0165
10757S        S17561   5.458   4.714  26.013 -0.2010 -0.0452 -0.5634
10758S        S17562   9.884  11.029  20.276  0.0587  0.6130  0.3925
10759S        S17563   3.653   9.407  20.609  0.3657  0.3956  0.6607
10760S        S17564   0.087   4.331  13.784 -0.0684 -0.1342 -0.4424
10761S        S17565   9.249   9.429  25.084  0.2426  0.1252  0.0907
10762S        S17566   9.385   3.446  27.096  0.0525 -0.1616  0.1352
10763S        S17567  11.502   0.518  18.393  0.0075  0.3611  0.4283
10764S        S17568   3.960  11.786  20.200  0.2656  0.1853 -0.3850
10765S        S17569  11.688   8.315  14.733  0.0913  0.0935 -0.1150
10766S        S17570   3.358   9.101  31.617  0.2872  0.1749 -0.7988
10767S        S17571   3.965   9.274  28.540 -0.2086 -0.3444  0.4425
10768S        S17572   6.458   2.599  19.607 -0.0495 -0.7336  0.1352
10769S        S17573   5.755   1.428  23.698 -0.4596 -0.4423  0.2938
10770S        S17574   1.544   1.119  17.481 -0.6063  0.0846 -0.4361
10771S        S17575   6.099   5.887  19.845  0.2210  0.3424  0.3983
10772S        S17576   8.474   3.418  27.125  0.1426 -0.1942 -0.2310
10773S        S17577   6.882   3.773  23.442  0.0705 -0.2108  0.1375
10774S        S17578   3.871   5.345  28.558  0.3717 -0.0888  0.0006
10775S        S17579   7.266   9.463  17.200 -0.1984  0.2225 -0.1704
10776S        S17580  11.481   1.607  11.816  0.0658 -0.5329  0.4686
10777S        S17581   2.932  11.150  23.910 -0.2734 -0.1480  0.2528
10778S        S17582   4.518   4.536  21.491 -0.2701 -0.2063 -0.0642
10779S        S17583   9.063   5.100  28.629 -0.1304 -0.4443 -0.2070
10780S        S17584  10.487   9.448  14.231  0.0524 -0.4221 -0.5526
10781S        S17585  11.604   4.202  30.294  0.0082 -0.2919 -0.1091
10782S        S17586   4.500   0.454  25.288  0.7054  0.1294  0.0508
10783S        S17587   3.114   4.403  17.872 -0.1475  0.2765  0.3598
10784S        S17588   1.535   2.488  12.323 -0.2663 -0.1748  0.3287
10785S        S17589   1.004  12.053  25.674  0.4981 -0.5664  0.8627
10786S        S17590  11.880   9.785  14.547  0.0687 -0.4581  0.2912
10787S        S17591  10.642   1.852  25.985  0.8691 -0.2136  0.1645
10788S        S17592   6.627   7.780  23.698 -0.0301  0.3654  0.1718
10789S        S17593   9.354  10.431  27.843 -0.8621  0.0884 -0.2112
10790S        S17594   2.069   7.276  13.987 -0.2267 -0.4574 -0.1358
10791S        S17595   2.099   7.383  26.107 -0.0763  0.4087 -0.1055
10792S        S17596  10.795   5.098  20.541 -0.8088 -0.3910 -0.3459
10793S        S17597   6.372   0.048  23.413 -0.2009 -0.0109  0.0558
10794S        S17598   6.994   1.625  27.511 -0.0274 -0.5874 -0.4284
10795S        S17599  11.505   0.728  29.756 -0.0096 -0.1199 -0.0822
10796S        S17600   8.555   2.613  29.674 -0.0120 -0.3780 -0.9432
10797S        S17601   8.438   6.844  27.189  0.3970 -0.3429 -0.2543
10798S        S17602  11.650  10.452  19.264 -0.3718 -0.2442  0.4100
10799S        S17603   7.792   6.720  18.359  0.2680 -0.0558  0.1819
10800S        S17604   4.586   3.501  15.061  0.0992 -0.3584 -0.5136
10801S        S17605   2.094  11.723  27.209 -0.9627  0.2681  0.1931
10802S        S17606  11.399  11.264  28.410  0.4203  0.1072 -0.5960
10803S        S17607   7.008   0.873  24.277 -0.2553  0.3195 -0.1474
10804S        S17608   3.475  12.323  29.083  0.0378 -0.3011 -0.5137
10805S        S17609   6.438   9.682  27.345 -0.4080  0.4103  0.3845
10806S        S17610   4.147  11.934  31.351  0.1834  0.0034 -0.1010
10807S        S17611   3.899   5.634  19.627  0.4930  0.4447 -0.3122
10808S        S17612   7.649   0.179  15.823 -0.2199 -0.4480 -0.3508
10809S        S17613   9.739   2.906  18.120 -0.2167  0.3677  0.0620
10810S        S17614   1.878  11.435  25.955 -0.1544 -0.5216  0.3821
10811S        S17615  10.931   6.673  19.658  0.4971  0.9926  0.0049
10812S        S17616   6.173  11.773  18.695 -0.4248  0.3722  0.0687
10813S        S17617   5.131   0.944  26.588 -0.0732  0.1093 -0.0778
10814S        S17618   4.554  10.453  11.174  0.6139  0.0274 -0.3045
10815S        S17619   2.786   2.732  27.455 -0.0016  0.3705 -0.7309
10816S        S17620  10.225   9.231  23.753  0.0665  0.0347 -0.1415
10817S        S17621  11.447   3.985  26.718  0.1776  0.2599  0.0050
10818S        S17622   5.648   3.710  18.096  0.4855  0.0904 -0.0157
10819S        S17623  10.712   1.045  13.287 -0.4507 -0.1158 -0.2700
10820S        S17624   3.156  11.207  15.958 -0.2071 -0.0667 -0.3499
10821S        S17625   7.762   7.658  23.261 -0.7097 -0.1637  0.0049
10822S        S17626  10.230  10.517  24.730  0.6817 -0.8128  0.0903
10823S        S17627   8.918  11.334  41.511 -0.3999 -0.2773  0.3663
10824S        S17628   4.735   3.564  26.437 -0.1955 -0.1307  0.6436
10825S        S17629   2.444  11.220  12.724  0.3499 -0.1934 -0.1953
10826S        S17630  10.218   5.986  21.053 -0.1969 -0.0159  0.2697
10827S        S17631  10.832   7.181  21.078 -0.4304 -0.4638  0.3525
10828S        S17632   0.476   9.564  14.236  0.0419 -0.3234 -0.4854
10829S        S17633  10.935   3.870  26.405 -0.0948 -0.3350 -0.0379
10830S        S17634   0.198   2.625  19.025  0.2893 -0.7254  0.1434
10831S        S17635   6.957   9.463  11.520  0.1333  0.2014 -0.2326
10832S        S17636   9.035   2.817  22.536 -0.1777  0.1396  0.0674
10833S        S17637   5.873   2.457  30.179  0.0342  0.3401  0.0014
10834S        S17638  10.969   3.902   8.893 -0.0291  0.4138  0.1163
10835S        S17639   8.732   5.240  18.529 -0.5743  0.2179 -0.4238
10836S        S17640   8.522   7.067  18.529 -0.3414  0.4413 -0.1586
10837S        S17641   8.386   2.730  24.420 -0.3704  0.0642 -0.3398
10838S        S17642   8.966   5.681  24.464 -0.7990  0.2639 -0.1439
10839S        S17643   4.015  11.770  20.752  0.2638 -0.0237  0.1869
10840S        S17644   7.534   4.362  23.042  0.1302  0.1126  0.0893
10841S        S17645   2.758   0.832   3.110 -0.1874 -0.1651 -0.3464
10842S        S17646   9.923   6.325  26.326 -0.5091 -0.0619  0.0574
10843S        S17647   7.598   2.082  22.536 -0.6168 -0.3044  0.1506
10844S        S17648   6.330   8.881  32.202  0.5110  0.5245 -0.0752
10845S        S17649   4.484   1.555  32.081  0.1399  0.2691 -0.5597
10846S        S17650   9.330   4.920  27.777  0.1097 -0.4598 -0.1793
10847S        S17651   3.970   7.667  18.810 -0.3416 -0.1555  0.0948
10848S        S17652  10.954   9.098  12.952  0.0778 -0.0024 -0.0115
10849S        S17653   2.325   9.511  32.591  0.4097 -0.0629  0.0182
10850S        S17654   9.486   1.749  13.329 -0.0565  0.2201  0.3758
10851S        S17655   2.881   7.347  12.258 -0.3383 -0.1283 -0.0262
10852S        S17656   1.849   6.830  16.444  0.2165 -0.0002  0.0625
10853S        S17657   8.056  11.680  23.728 -0.1118  0.2041  0.1958
10854S        S17658   8.195  10.351  26.255 -0.4104 -0.2991  0.2623
10855S        S17659   6.213   6.362  29.127 -0.3713 -0.3822  0.1547
10856S        S17660  11.491  10.585  25.896  0.0064 -0.2578  0.2736
10857S        S17661   2.391   6.488  19.014 -0.3308  0.0216  0.2058
10858S        S17662   6.897  12.348  25.449 -0.1195  0.1624 -0.0213
10859S        S17663   8.413  11.479  15.726 -0.3853 -0.0978 -0.0849
10860S        S17664   9.853  11.992  30.631 -0.2016  0.1044  0.0383
10861S        S17665   6.794  11.266  13.683 -0.0274  0.3502  0.4061
10862S        S17666  11.707  10.257  20.953  0.0418 -0.4717 -0.1658
10863S        S17667   6.983   7.925  13.838 -0.0334 -0.2992 -0.4440
10864S        S17668   7.549   7.625   3.490 -0.1774  0.8543  0.2070
10865S        S17669  10.279   8.708  18.255 -0.1657 -0.1076 -0.1033
10866S        S17670   4.540   9.095   6.481  0.2137 -0.0553  0.0435
10867S        S17671   0.991   6.254  42.402  0.2075  0.0365  0.4009
10868S        S17672  10.846   4.193  26.914  0.5672 -0.1083  0.6161
10869S        S17673   6.980  10.260  20.550 -0.6133  0.0886 -0.2183
10870S        S17674   9.218   2.977  23.949  0.4873  0.0513 -0.2998
10871S        S17675   1.487   8.224  16.600  0.1491  0.3609  0.3931
10872S        S17676   7.069   0.593  26.284  0.1727 -0.0147 -0.1692
10873S        S17677   5.394   0.615  27.321 -0.0683 -0.0680 -0.0908
10874S        S17678  12.354   5.334  19.216  0.1609  0.2226 -0.2372
10875S        S17679   8.468  11.756  26.698 -0.4688  0.1218 -0.0977
10876S        S17680   1.667   9.098  23.675 -0.3623  0.0041  0.3825
10877S        S17681   8.723  11.059  27.505  0.1059 -0.0179 -0.0440
10878S        S17682   2.702   5.363  27.265  0.4212 -0.1786  0.1309
10879S        S17683   8.396  11.296  24.873 -0.0537  0.1208 -0.3151
10880S        S17684   3.036   1.861  15.869  0.3358 -0.0467 -0.3797
10881S        S17685   5.210   8.875  24.294  0.3564 -0.3391 -0.1822
10882S        S17686  10.394   4.140  31.813  0.2064 -0.0276 -0.4397
10883S        S17687   9.692   2.952  15.084  0.4323  0.0651  0.2091
10884S        S17688  10.187  11.716  17.500  0.1310  0.1769  0.0100
10885S        S17689   7.107  11.199  19.764 -0.4934  0.1228 -0.0147
10886S        S17690  10.706   8.142  25.557  0.0889  0.2198 -0.0204
10887S        S17691   1.529   0.149  23.610  0.2927  0.0977  0.0138
10888S        S17692   8.665  12.098  19.107 -0.4815  0.1387 -0.0370
10889S        S17693   9.399   6.099  13.783 -0.2262 -0.1461  0.2348
10890S        S17694   8.689  11.158  24.378  0.2103  0.1017  0.2208
10891S        S17695   0.016   7.605  12.679  0.1974 -0.0819 -0.0030
10892S        S17696   0.362  11.404  16.538  0.0263  0.3644 -0.0419
10893S        S17697   2.935   0.537  30.832  0.3363 -0.3672 -0.1115
10894S        S17698   7.146   4.292  15.106 -0.2625  0.4496 -0.1216
10895S        S17699   3.487   9.584  28.107  0.0803 -0.5773 -0.0912
10896S        S17700   8.902   5.571  11.156  0.6021  0.0431 -0.3386
10897S        S17701  10.409   9.890  27.112 -0.1782  0.0237  0.7498
10898S        S17702   5.093  12.088  28.611 -0.0676 -0.0588  0.0940
10899S        S17703   1.359   7.337  23.555 -0.1089 -0.2359 -0.0445
10900S        S17704   4.045   9.623  23.558 -0.1594  0.3460  0.5486
10901S        S17705   9.481   2.871   5.416 -0.0529  0.0822  0.1135
10902S        S17706   4.605  11.035  17.022  0.3252 -0.3722  0.2371
10903S        S17707   6.334  10.073  18.078 -0.1378  0.2626 -0.1450
10904S        S17708   9.002  10.354  25.635 -0.2675  0.5263 -0.1102
10905S        S17709   5.149   1.182  16.772 -0.0084  0.0959  0.5119
10906S        S17710   7.379   5.067  12.733 -0.1823 -0.4263  0.1594
10907S        S17711   4.956   7.724  25.779 -0.3283  0.5939  0.8857
10908S        S17712   4.056   1.594  12.147 -0.0608 -0.0094 -0.2624
10909S        S17713   6.428   7.469  16.328 -0.2416  0.7124 -0.8103
10910S        S17714   9.302   5.394  20.770 -0.4549  0.0731  0.3724
10911S        S17715  10.210  10.848  15.524 -0.5448 -0.2813 -0.2842
10912S        S17716   3.516   7.652  16.904 -0.2240  0.5944  0.0266
10913S        S17717   2.406  10.217  11.819 -0.2518  0.0979  0.1869
10914S        S17718   5.493   0.382  17.750 -0.4827 -0.2148  0.3990
10915S        S17719  10.154   8.285  22.110 -0.3095 -0.0018 -0.1998
10916S        S17720   7.747   2.232  21.791 -0.0837 -0.2491  0.3121
10917S        S17721   0.201   6.956  17.370  0.2219  0.2360  0.1250
10918S        S17722   8.877  10.409  31.981  0.1832 -0.4936 -0.4294
10919S        S17723   6.605   9.491  12.511 -0.4682 -0.0985  0.4495
10920S        S17724   5.812   5.622  28.847  0.0687 -0.0181  0.0415
10921S        S17725   3.912   8.506  13.306  0.0061  0.3318  0.0177
10922S        S17726   1.908   7.038  15.113  0.5553 -0.1784 -0.1699
10923S        S17727   7.034   9.942  27.748  0.2003 -0.3783  0.4466
10924S        S17728   8.915   3.402  16.066  0.5281 -0.3924 -0.0980
10925S        S17729   1.229  10.679  14.581 -0.0234 -0.0767  0.0121
10926S        S17730   1.494  11.092  22.877  0.1429 -0.0070 -0.6444
10927S        S17731   1.303   0.576  29.685  0.9433  0.2678  0.6871
10928S        S17732   9.767   7.013  17.972 -0.3241 -0.2162 -0.4670
10929S        S17733   5.731   8.474  27.989  0.2674 -0.5870  0.7210
10930S        S17734   4.237   6.614  18.587 -0.2123 -0.2027 -0.1658
10931S        S17735   4.193  10.386  22.297 -0.0607 -0.3236 -0.5156
10932S        S17736  11.447   6.645  19.766 -0.3225  0.1072  0.0832
10933S        S17737   3.665   8.122  10.714  0.3788  0.0564 -0.4434
10934S        S17738   3.822   6.408  21.686  0.3263 -0.0274 -0.1327
10935S        S17739   9.350   0.889  43.348 -0.1344  0.1023  0.1014
10936S        S17740  11.511  10.124  12.100 -0.1011  0.2510 -0.2003
10937S        S17741   7.148  11.533  19.237 -0.5265  0.1158  0.1910
10938S        S17742  11.173   7.033  17.733  0.1210  0.5448 -0.3211
10939S        S17743   9.652   0.075  28.186  0.0644  0.5846  0.2241
10940S        S17744   6.026   3.481  26.670 -0.8776 -0.0167  0.6189
10941S        S17745  10.905   4.922  17.654 -0.1841  0.6644 -0.0902
10942S        S17746   8.445   4.789  29.708 -0.3468 -0.1222 -0.2773
10943S        S17747   4.962   0.994  20.585 -0.2907 -0.2842  0.0789
10944S        S17748   4.170   7.614  29.650  0.2846  0.1078 -0.0357
10945S        S17749  11.507   1.652  19.616  0.1616 -0.1249  0.1264
10946S        S17750   7.583  11.155  19.455 -0.5889  0.2590 -0.4105
10947S        S17751   8.657   0.374  17.457  0.2465  0.2331  0.0411
10948S        S17752   1.102   0.931  18.523 -0.0556  0.3490 -0.0229
10949S        S17753  11.200   8.131  25.313 -0.0034 -0.1985  0.1489
10950S        S17754   8.374   5.281  16.867 -0.2979  0.1677  0.2016
10951S        S17755   1.337   0.434  25.814 -0.0852  0.0267  0.0146
10952S        S17756   6.435   8.257  25.911 -0.2222 -0.1659  0.1598
10953S        S17757   4.467   2.781  24.838  0.1445  0.3381 -0.3032
10954S        S17758   1.551   0.241  21.828 -0.1352 -0.3148 -0.2682
10955S        S17759   0.863   8.662  22.588 -0.2505 -0.8130  0.0265
10956S        S17760   0.393   4.629  15.729  0.3993  0.0355 -0.3588
10957S        S17761   1.835   6.224  14.934 -0.6589 -0.0614 -0.1124
10958S        S17762   5.062   4.716  18.732  0.0474 -0.6551  0.0334
10959S        S17763  11.907   3.018  13.605  0.0886  0.3291 -0.1685
10960S        S17764   6.385   7.217  19.542 -0.4035  0.0320 -0.2444
10961S        S17765   1.635   8.753  12.931 -0.3785  0.0367  0.1531
10962S        S17766   7.754   0.283  24.092 -0.4593  0.6461 -0.0810
10963S        S17767   3.827   4.390  17.255  0.2068  0.2667 -0.0350
10964S        S17768   5.153   4.024  26.979  0.0097 -0.0432  0.1019
10965S        S17769   9.960   0.468  13.439  0.3609  0.1632 -0.4785
10966S        S17770  12.186   8.094  12.796  0.1614  0.0221  0.2009
10967S        S17771   7.739   7.127  18.006  0.0973  0.2876  0.0751
10968S        S17772   3.273   8.869  22.033 -0.2012  0.3839  0.3963
10969S        S17773  11.168   9.669  14.974  0.4502  0.3360  0.2224
10970S        S17774   5.904   4.910  12.699 -0.2875 -0.0005  0.0898
10971S        S17775   2.526   3.571  16.783  0.2268 -0.5679 -0.3081
10972S        S17776   4.790   1.294  22.023 -0.0071  0.2338  0.1008
10973S        S17777   8.292   0.017  12.943  0.1772  0.5929  0.0249
10974S        S17778   8.770   9.868  29.727  0.1941 -0.2063  0.1157
10975S        S17779   4.048  12.001  32.283  0.1577 -0.4323 -0.0460
10976S        S17780  10.856   5.890  15.186  0.2017 -0.0228  0.2393
10977S        S17781   6.897   1.194  31.242  0.4586  0.0465 -0.0394
10978S        S17782   5.528  10.913  26.647 -0.1587  0.1570 -0.1244
10979S        S17783   9.442   4.643  22.605 -0.2464  0.0471  0.4130
10980S        S17784   0.300   8.687  15.700 -0.0002  0.4791  0.3381
10981S        S17785  11.995   5.588  22.239  0.1097 -0.4605  0.1596
10982S        S17786   1.472  12.349  31.200 -0.4059  0.3097 -0.2683
10983S        S17787  10.537  10.818  17.820  0.0222 -0.0197  0.1082
10984S        S17788   1.396   6.582  22.594  0.0888  0.0676 -0.1619
10985S        S17789   8.111   7.613  12.097 -0.1879  0.1403 -0.1050
10986S        S17790  10.215   9.268  24.280  0.1195  0.1334 -0.1043
10987S        S17791   7.520  11.972  24.492  0.3285 -0.3416  0.3809
10988S        S17792   4.921   4.291  22.981  0.3000  0.4619  0.3373
10989S        S17793   0.264  10.870  14.861  0.1708 -0.2130  0.2081
10990S        S17794   4.264   7.358  16.227 -0.0184  0.1185 -0.0084
10991S        S17795  11.467   4.829  16.217  0.3220  0.0728  0.0119
10992S        S17796   0.357   9.660  24.095 -0.0541 -0.1679  0.1343
10993S        S17797   9.887   9.964  32.844  0.2554  0.0568 -0.2325
10994S        S17798   6.964   9.469  27.987  0.1311  0.0724  0.2771
10995S        S17799   6.802  12.217  13.286  0.2242  0.0604 -0.1428
10996S        S17800   2.105   4.394  12.287  0.0372  0.0735 -0.1422
10997S        S17801   9.390   0.352  45.153  0.2465 -0.2229 -0.1911
10998S        S17802   5.338   7.625  22.310 -0.3600 -0.0105 -0.3442
10999S        S17803  11.653   2.806  19.601 -0.0807 -0.3023 -0.0892
11000S        S17804   6.838   6.924  19.591  0.1704 -0.0665 -0.1604
11001S        S17805  10.487   3.089  32.412  0.2188  0.0780 -0.3176
11002S        S17806   4.998  11.026  22.412 -0.4720 -0.2398  0.2294
11003S        S17807   5.161  11.899  15.223 -0.5182  0.2599  0.0285
11004S        S17808   2.157   4.415  31.253 -0.9460  0.3886  0.4700
11005S        S17809   3.781   7.640  14.223 -0.5818 -0.3343 -0.0478
11006S        S17810  10.450   8.841  26.261 -0.1640  0.1439  0.5171
11007S        S17811  11.173   7.929  28.600 -0.2143 -0.3895 -0.9359
11008S        S17812   4.569   2.179  19.278 -0.2652  0.3047  0.3822
11009S        S17813  11.511   7.607  12.393  0.2922  0.1554 -0.3398
11010S        S17814   3.832   4.289  24.463  0.3683  0.1908 -0.2700
11011S        S17815   7.096   7.709  27.943 -0.2882 -0.1834 -0.0145
11012S        S17816   3.912   4.769  24.104  0.1863  0.0215  0.1275
11013S        S17817   4.995   1.826  20.213  0.3434  0.6212  0.0291
11014S        S17818   1.058   8.674  20.392  0.1380  0.1723 -0.0605
11015S        S17819   7.483   7.878  21.624 -0.1002 -0.4067 -0.3892
11016S        S17820   8.011   6.649  24.478  0.1083 -0.5554  0.3860
11017S        S17821   0.800   7.617  22.156 -0.1287  0.6805  0.3293
11018S        S17822  11.878   3.758  26.963 -0.1605  0.3467 -0.2523
11019S        S17823   0.192  11.739  21.822 -0.2937  0.1753 -0.3068
11020S        S17824   5.743   2.186   2.503  0.1263 -0.0132 -0.1298
11021S        S17825  11.230   6.629  28.627  0.3105 -0.0515 -0.0743
11022S        S17826  12.013   0.041  16.437  0.0570  0.8131  0.3363
11023S        S17827  10.197   1.314  11.438  0.0931  0.2968 -0.3456
11024S        S17828   9.281   9.410  30.592  0.6665  0.2140  0.5216
11025S        S17829  10.877  10.905  20.180 -0.2146 -0.0361  0.0288
11026S        S17830   7.498   6.140  16.947  0.1339  0.4942  0.0270
11027S        S17831   5.565  11.661  30.898 -0.2540  0.1578 -0.0662
11028S        S17832   1.311   0.990  32.454  0.0648 -0.1754  0.0968
11029S        S17833  10.610   1.552  14.903 -0.2081 -0.0921  0.4379
11030S        S17834   3.536  11.217  29.129  0.3264  0.2824 -0.3308
11031S        S17835  11.199   2.811  19.335 -0.2848  0.1478 -0.5081
11032S        S17836   4.388   5.371  17.560  0.3381  0.0404  0.1128
11033S        S17837   6.255   2.729  21.058  0.4645  0.4381  0.2586
11034S        S17838  10.707   5.990  29.164  0.3253  0.0756 -0.3782
11035S        S17839   6.993   6.988  18.605  0.0983 -0.1211  0.0138
11036S        S17840  11.631   9.094  10.896  0.2106  0.3950 -0.3777
11037S        S17841  10.956   2.899  15.271  0.1340 -0.5626 -0.0374
11038S        S17842   2.658   7.737  19.456  0.1844 -0.0146 -0.0765
11039S        S17843   3.690  10.225  19.419 -0.3279 -0.1563  0.1757
11040S        S17844   4.975   5.481  25.372 -0.0389  0.1339  0.4330
11041S        S17845   6.873   8.855  21.656 -0.2202  0.4116 -0.0765
11042S        S17846   5.181   0.444  29.660  0.0399 -0.0632  0.3656
11043S        S17847   7.128  10.198  30.803  0.5764  0.3063  0.5178
11044S        S17848   7.311   6.480  18.456 -0.0756 -0.2861  0.2819
11045S        S17849   0.382   1.889  12.177 -0.1144  0.1451 -0.4715
11046S        S17850   9.789   1.053  30.016  0.4305 -0.0880 -0.7925
11047S        S17851   7.588   7.647  27.498  0.0321 -0.1186 -0.3910
11048S        S17852   8.759   7.420  31.127 -0.0439 -0.5042 -0.3043
11049S        S17853   1.461   6.452  43.901 -0.7734 -0.1308  0.5405
11050S        S17854   9.278   6.254  14.939  0.3602 -0.4395 -0.2930
11051S        S17855   8.136  12.084  26.120 -0.2121  0.1218  0.2332
11052S        S17856  11.184  11.852  28.054 -0.7290  0.0429 -0.2340
11053S        S17857   7.539   3.100  30.644 -0.4252  0.7622  0.1508
11054S        S17858   7.538   6.127  30.626  0.9891 -0.2425  0.5328
11055S        S17859  12.258   0.777  29.530 -0.2937 -0.2560  0.5168
11056S        S17860   6.099   3.573  47.917  0.0751  0.0273 -0.0311
11057S        S17861   2.342   7.302  24.070 -0.0883  0.4972  0.8038
11058S        S17862   5.221  11.193  11.202  0.3932  0.1239 -0.4200
11059S        S17863   9.103  11.532  19.712 -0.2720  0.3148 -0.2278
11060S        S17864   7.477   5.960  21.713 -0.3012 -0.2254  0.3195
11061S        S17865  11.918  10.657  20.508 -0.0166 -0.4772  0.1840
11062S        S17866  11.338   8.431   2.720  0.0398 -0.5044  0.8231
11063S        S17867   4.839   0.667  13.328  0.1847 -0.4815 -0.2342
11064S        S17868   7.737   3.365  13.527 -0.5202  0.1741  0.1001
11065S        S17869   6.806   4.665  18.826  0.1521 -0.2687  0.1115
11066S        S17870   5.638   4.737  21.095 -0.3302  0.5146 -0.1504
11067S        S17871   6.401   9.277  19.632 -0.0818 -0.1094 -0.8834
11068S        S17872   8.111   1.588  10.687  0.2995  0.3105  0.7827
11069S        S17873  12.215  11.438  28.165 -0.2752 -0.4503 -0.5638
11070S        S17874   5.628   5.512  16.851 -0.0012 -0.1940  0.1601
11071S        S17875   4.487  10.861  17.926  0.2630 -0.1416 -0.2253
11072S        S17876   1.268   8.712  18.442 -0.2105  0.2601  0.6525
11073S        S17877   0.171   2.389  20.114 -0.3469  0.4461  0.2052
11074S        S17878   4.793   5.842  16.662  0.5000 -0.2250  0.0455
11075S        S17879   4.872  11.543  30.271 -0.3199  0.1845 -0.5218
11076S        S17880   6.136   4.791  22.212 -0.6822  0.2263 -0.1242
11077S        S17881   5.662   9.159  13.307  0.4178  0.1877 -0.1813
11078S        S17882  10.274   6.823  12.108 -0.0538 -0.0702 -0.0604
11079S        S17883   1.613   5.836  16.830  0.1158 -0.4016  0.1234
11080S        S17884   8.378   6.150  15.957 -0.2555 -0.3856 -0.0643
11081S        S17885   1.592   7.076  12.955  0.0470 -0.0170  0.6497
11082S        S17886   9.930   8.373  16.710 -0.0996  0.0937  0.1048
11083S        S17887   7.744   2.643  39.505  0.1157 -0.4774  0.3535
11084S        S17888   8.355   5.848  26.071 -0.3117 -0.1898 -0.1736
11085S        S17889  10.528   3.447  31.926  0.2350  0.8718 -0.0871
11086S        S17890   1.724   7.983  14.761 -0.3957  0.3282  0.4446
11087S        S17891  11.827   8.417  11.848 -0.1232 -0.0522  0.0697
11088S        S17892   1.475   1.358  14.097  0.1352  0.1729  0.3965
11089S        S17893   9.997   9.026  15.086 -0.1126 -0.2939  0.1868
11090S        S17894   9.939   4.361   0.486 -0.0488 -0.4649  0.3064
11091S        S17895   5.382  11.973  30.405 -0.2856 -0.3066  0.1382
11092S        S17896   6.748   3.891  18.203  0.0859  0.1567 -0.2551
11093S        S17897   1.109   5.252  21.920 -0.1932 -0.2655 -0.3309
11094S        S17898   9.594   7.617  23.239  0.1798  0.7847  0.3378
11095S        S17899   9.601  11.658  19.455  0.3373 -0.2696 -0.3420
11096S        S17900   9.091   8.275  28.493  0.2326 -0.4810 -0.2225
11097S        S17901   0.929   0.143  32.828  0.3989  0.3950  0.0817
11098S        S17902   3.641   9.821  27.305 -0.1181  0.4933 -0.0486
11099S        S17903   3.878  11.595  22.396  0.1785 -0.3989 -0.5651
11100S        S17904   7.580  11.415  26.574 -0.2882 -0.0313  0.3167
11101S        S17905   1.777  10.602  21.504 -0.0449 -0.0905 -0.8336
11102S        S17906  12.344  11.436  44.831 -0.3008  0.2233  0.3615
11103S        S17907   3.606   4.253  23.964  0.3311  0.6335 -0.2188
11104S        S17908  10.963   6.802  25.967  0.8138  0.0930 -0.0693
11105S        S17909  11.041   8.540  11.237 -0.0241 -0.3439 -0.0617
11106S        S17910   2.894   2.455  20.827  0.7621 -0.3757 -0.2674
11107S        S17911  10.461   2.068  35.984  0.0407 -0.2244 -0.0950
11108S        S17912   1.375   0.503  22.730  0.5710 -0.2312  0.0118
11109S        S17913   4.414   8.103  20.419  0.2985  0.2747 -0.3334
11110S        S17914  12.163   8.647  23.847  0.2632  0.1159 -0.3329
11111S        S17915   1.309   6.580  15.815  0.2428  0.0068 -0.6577
11112S        S17916   3.724   7.608  26.809  0.3404 -0.3410  0.0700
11113S        S17917   2.947  11.018  20.076 -0.0934 -0.3997 -0.2702
11114S        S17918   7.066   3.937  13.211  0.0862  0.1300  0.1223
11115S        S17919   3.276   0.648  27.026  0.3180  0.4748 -0.0268
11116S        S17920   5.546   3.983  18.499 -0.1404 -0.0064 -0.5148
11117S        S17921   2.062  11.738  14.448  0.0036  0.3450 -0.1524
11118S        S17922   6.300   7.787  30.056  0.2346  0.2197 -0.9578
11119S        S17923   5.834   4.025  13.862  0.4501  0.0079 -0.2710
11120S        S17924   6.579  10.359  27.538  0.5397  0.1183 -0.2532
11121S        S17925   3.897   6.516  14.562  0.0132  0.1265 -0.1310
11122S        S17926  11.211  12.218  20.939  0.0801  0.1064 -0.1737
11123S        S17927   0.273   6.952  30.800  0.3943 -0.1643 -0.3057
11124S        S17928   2.786  10.900  20.556 -0.0101  0.2808 -0.2783
11125S        S17929   8.816   4.333  23.309  0.2418 -0.1387 -0.1954
11126S        S17930  12.361   7.632  24.991  0.4459  0.2724  0.2151
11127S        S17931  11.962   2.318  14.508  0.2361  0.1780  0.2912
11128S        S17932   5.773   9.270  28.788  0.2552  0.8243  0.1860
11129S        S17933   6.700   8.985  20.629  0.2973 -0.0512 -0.2999
11130S        S17934   2.483  11.711  21.964  0.0431  0.0208 -0.2442
11131S        S17935   3.626   6.810  22.977 -0.5512  0.2258 -0.0047
11132S        S17936   2.820   8.110  24.941  0.7571  0.2456  0.1575
11133S        S17937  11.419   2.285  29.961  0.2042 -0.0560  0.3754
11134S        S17938   0.109   6.994  16.311  0.3697  0.0288  0.3774
11135S        S17939   4.814   4.799  22.139 -0.6031 -0.2919 -0.4495
11136S        S17940   2.634   0.618  18.087 -0.0836  0.1593 -0.0552
11137S        S17941   3.186   2.968  16.668  0.2146  0.6540  0.2035
11138S        S17942   9.208   8.628  15.886 -0.2397  0.2319  0.0370
11139S        S17943   4.256   6.561  19.165  0.0238  0.4405  0.2676
11140S        S17944   9.660   1.134  29.510 -0.8172 -0.3056  0.2323
11141S        S17945   6.268   6.083  20.749  0.4824  0.1392 -0.4024
11142S        S17946  10.702  10.461  17.483  0.4261 -0.1383  0.3675
11143S        S17947   5.511   8.884  16.205  0.1987  0.1428  0.1245
11144S        S17948   2.036   8.293  30.296  0.2011 -0.3006  0.3178
11145S        S17949   3.975   0.670   7.714 -0.1605 -0.2222  0.2745
11146S        S17950   6.338   0.737  19.518 -0.1218 -0.3796  0.0170
11147S        S17951   3.269   1.956  16.922  0.0539  0.3272  0.4677
11148S        S17952   6.215  10.270  28.729 -0.2684  0.2276 -0.0925
11149S        S17953   4.979  11.890  18.908  0.2944 -0.0256 -0.0105
11150S        S17954  10.667  11.757  11.418  0.3108  0.0990  0.2675
11151S        S17955   2.626   4.380  19.167  0.1770 -0.4413  0.0157
11152S        S17956   9.189   5.805  37.983  0.1208  0.0948  0.0132
11153S        S17957  11.502   1.129  27.639  0.2394  0.3556  0.4888
11154S        S17958   7.648   9.681  12.692 -0.5299  0.4344 -0.0600
11155S        S17959   6.531   1.093  15.666  0.0611  0.2437 -0.5375
11156S        S17960   9.368   0.161  15.468  0.3455 -0.3749 -0.0725
11157S        S17961   1.860   7.555  29.772 -0.1568 -0.1710 -0.0202
11158S        S17962   6.649   2.987  19.191  0.2898  0.4660 -0.0541
11159S        S17963   1.603   9.312  19.344 -0.2887  0.0774  0.0140
11160S        S17964   8.271   6.855  18.069 -0.1924 -0.0142 -0.2562
11161S        S17965   7.430  11.731  18.291  0.0369  0.1126 -0.1086
11162S        S17966  11.375   4.406  11.907  0.1930  0.0133  0.4851
11163S        S17967   7.767  10.557  36.115 -0.0912 -0.0498 -0.3515
11164S        S17968   7.279   0.861  22.077  0.3286  0.4125  0.0006
11165S        S17969   1.095  11.029  24.117 -0.6592 -0.5283  0.2771
11166S        S17970   7.544   8.565  19.028  0.3224  0.5770  0.0485
11167S        S17971   5.408   5.102  14.736  0.3887  0.1872 -0.2089
11168S        S17972   1.935   3.549  11.816  0.0139 -0.0390 -0.4538
11169S        S17973   4.165  12.074  30.441  0.2392  0.0773 -0.0010
11170S        S17974   9.093  10.010  30.251  0.3997 -0.7824 -0.7018
11171S        S17975  11.414   8.758  27.296 -0.2209 -0.1358 -0.1944
11172S        S17976   9.210   9.050  22.707  0.2230 -0.0335  0.1460
11173S        S17977   7.526   1.661  15.240  0.3907  0.0449  0.3289
11174S        S17978   8.107   7.482  33.199  0.1814  0.2428  0.0954
11175S        S17979   8.326   9.125  18.014  0.2867 -0.2449 -0.0570
11176S        S17980   9.737  11.520  29.931 -0.3116  0.0371 -0.2173
11177S        S17981   9.165   7.527  17.354 -0.3275  0.1374  0.2955
11178S        S17982   4.048   1.549  32.678 -0.2891  0.2241 -0.5484
11179S        S17983   9.766   9.830  16.297  0.3824  0.0952 -0.2880
11180S        S17984   2.068   7.754  27.673 -1.0324  0.1550 -0.3426
11181S        S17985   9.393   4.636  16.636  0.4590 -0.2854 -0.5876
11182S        S17986   5.791   7.011  22.769 -0.1162 -0.3369  0.5202
11183S        S17987   2.656  11.238  12.190  0.1317 -0.0010 -0.1126
11184S        S17988   2.311   8.311  22.906 -0.1131 -0.5171  0.2315
11185S        S17989   3.135   9.494  20.120 -0.3399 -0.4371  0.0989
11186S        S17990   0.178   8.382  10.663  0.4050  0.5913 -0.0769
11187S        S17991   7.102  10.229  18.282 -0.0694  0.1097 -0.0142
11188S        S17992  11.925  11.981  12.989  0.6183  0.2593  0.1165
11189S        S17993   4.194   1.500  11.667 -0.1330 -0.0334 -0.1377
11190S        S17994  11.064  11.569  17.968 -0.4443 -0.3285  0.1396
11191S        S17995   9.562   5.774  16.709 -0.2638 -0.0896  0.1734
11192S        S17996  10.340   1.217  14.003  0.3513 -0.0660 -0.1961
11193S        S17997   3.015   8.145  24.451 -0.3489  0.4805 -0.3163
11194S        S17998  10.966   4.094  15.240 -0.0064  0.4049  0.0591
11195S        S17999   2.434   8.590  28.381 -0.1991  0.1927  0.2091
11196S        S18000   1.026   3.435  20.254 -0.5246  0.1046 -0.0560
11197S        S18001   0.208   9.257  12.072  0.2815 -0.4254  0.0990
11198S        S18002   5.188   1.158  22.415 -0.7549 -0.1573 -0.4862
11199S        S18003   9.148   0.709  27.628 -0.1649 -0.1296  0.6348
11200S        S18004   4.362   1.713  27.046  0.0345  0.0995 -0.5911
11201S        S18005   7.088   6.624  29.658 -0.9109 -0.6565  0.3569
11202S        S18006   9.338   9.428  15.345 -0.3708 -0.1263 -0.0540
11203S        S18007   8.675   2.867  22.940  0.1061 -0.4012 -0.1730
11204S        S18008  11.290   4.713  23.425  0.1926  0.6602  0.3162
11205S        S18009  10.404   1.369  19.745  0.1183  0.5774 -0.1713
11206S        S18010  10.974   5.168  13.574  0.4442 -0.3701 -0.2618
11207S        S18011   6.793   4.573  21.549 -0.1950 -0.1013  0.1821
11208S        S18012  12.019   2.478  18.210 -0.6471 -0.5021  0.5152
11209S        S18013   0.025  10.878  21.275  0.0375 -0.1435 -0.1155
11210S        S18014   9.866   3.323  24.502 -0.0014 -0.1902 -0.2854
11211S        S18015   2.564   2.266  13.887 -0.2404 -0.0816  0.6379
11212S        S18016   5.480   6.608  20.831  0.0010 -0.4517 -0.5632
11213S        S18017   1.800   3.224  15.661  0.2329  0.4971  0.3484
11214S        S18018   4.652   0.127  33.157 -0.1677  0.7707  0.1890
11215S        S18019   4.291   1.555  14.970  0.0843  0.6699  0.2321
11216S        S18020   8.209   8.012  20.625  0.1606 -0.3260 -0.0788
11217S        S18021   2.436  11.510  17.964 -0.3556 -0.2538 -0.1470
11218S        S18022  11.649  12.271  15.110 -0.4078  0.4197  0.2827
11219S        S18023   3.124   7.693  19.643  0.3741  0.2576 -0.2295
11220S        S18024   0.287   3.854  16.777  0.7435  0.1130 -0.2583
11221S        S18025  10.322   9.542  32.271 -0.0832  0.3958  0.2397
11222S        S18026   7.000   8.173  29.059  0.2768 -0.3119 -0.0775
11223S        S18027   3.265   9.266  21.259 -0.1562  0.3576 -0.2220
11224S        S18028   6.135   9.946  31.024  0.6460  0.2097  0.3145
11225S        S18029  12.098   1.445  13.471 -0.6284 -0.2430  0.2493
11226S        S18030   0.698   8.748  14.560 -0.2601 -0.7810 -0.3380
11227S        S18031   0.796   5.765  12.371 -0.0654 -0.2207  0.3544
11228S        S18032   4.177   0.054  25.530  0.4916 -0.6743  0.2293
11229S        S18033  11.972   5.479  31.688 -0.4704  0.0737  0.0312
11230S        S18034   6.395  10.292  19.867 -0.2706  0.0997 -0.1617
11231S        S18035  12.265  10.272  15.390 -0.2003  0.1721 -0.2946
11232S        S18036   9.243  12.111  32.437 -0.3299 -0.1378 -0.1240
11233S        S18037   7.992   8.707  17.801 -0.1311 -0.1433  0.1008
11234S        S18038   0.763   5.629  18.462  0.5271 -0.0169  0.5765
11235S        S18039   5.884   1.348  17.975 -0.3223  0.3125 -0.3411
11236S        S18040   6.971  10.819  29.407  0.2584  0.2604  0.1325
11237S        S18041   1.598   8.917  18.047 -0.0884  0.1675  0.1399
11238S        S18042   9.281  11.669  17.411  0.3196 -0.1293  0.2332
11239S        S18043   9.069   2.379  29.537 -0.4524 -0.0028  0.4375
11240S        S18044   1.115   1.992  24.057 -0.0516 -0.2238 -0.3035
11241S        S18045   8.351   1.265  11.247 -0.2136  0.1482 -0.2288
11242S        S18046   8.411  12.320  29.454  0.1943 -0.0685 -0.1074
11243S        S18047   4.456   6.463  31.022 -0.9983  0.2367  0.4206
11244S        S18048  11.235   0.049  31.692 -0.1817 -0.3547  0.1041
11245S        S18049   2.580   7.645  17.202 -0.5091  0.0683  0.1779
11246S        S18050   2.550   0.503  20.767 -0.2821 -0.1220  0.1593
11247S        S18051   0.646   3.634  28.653 -0.1616  0.0341  0.5378
11248S        S18052  11.969   4.079  13.750  0.5994 -0.0059 -0.5697
11249S        S18053   3.059   3.634  20.273 -0.4423 -0.1636 -0.6228
11250S        S18054   2.838   0.998  15.357 -0.0352  0.1204 -0.1659
11251S        S18055   2.881   5.529  23.743  0.2732  0.1382 -0.6692
11252S        S18056   3.107   7.604   9.441  0.2528  0.0367  0.2076
11253S        S18057   0.715   4.856  30.232  0.7067 -0.2403  0.7261
11254S        S18058   8.464   6.411  24.234  0.3162  0.1052 -0.1299
11255S        S18059   2.219  10.105  24.608  0.1869  0.0788 -0.4334
11256S        S18060   1.793   4.053  24.966  0.0809  0.1790 -0.2040
11257S        S18061   1.216   2.138  28.043 -0.2388 -0.1071  0.3755
11258S        S18062   4.783  11.429  21.622  0.4109 -0.1496  0.3630
11259S        S18063   2.781   0.630  16.135 -0.1118 -0.1872 -0.1224
11260S        S18064   4.932  10.332  11.494  0.4261  0.3506  0.0085
11261S        S18065   6.818   6.597  14.693  0.0496  0.3308 -0.2871
11262S        S18066   7.510   8.972  23.904 -0.3458 -0.4446 -0.3912
11263S        S18067   7.107   3.162  15.887 -0.0794 -0.2737 -0.2216
11264S        S18068   9.200   3.237  12.572  0.0369  0.0876 -0.0457
11265S        S18069   4.848   9.505  23.681 -0.3446  0.0145 -0.2908
11266S        S18070  11.527   4.715  27.277 -0.0899 -0.3578  0.3604
11267S        S18071   0.876  11.644  30.288  0.4702 -0.0627 -0.5797
11268S        S18072   3.927   6.845   6.150 -0.1888 -0.0751  0.0555
11269S        S18073   2.644   0.371  13.293 -0.2130  0.6585  0.1276
11270S        S18074   6.832   9.792  13.300 -0.4194  0.0689  0.2550
11271S        S18075   9.993   3.416  31.142  0.9507  0.0013  0.1096
11272S        S18076   0.846   7.692  26.924 -0.3043  0.0339  0.1651
11273S        S18077   3.689   1.197  23.283  0.0252 -0.4199 -0.2042
11274S        S18078   7.383   9.937  16.893  0.0439 -0.4406 -0.4034
11275S        S18079  11.975   4.760  16.267 -0.0369  0.3249 -0.3598
11276S        S18080   8.774   7.514  19.535 -0.0164  0.3865 -0.4835
11277S        S18081   8.401  10.006  25.419 -0.2641  0.5208 -0.1722
11278S        S18082  10.609   7.185  36.558  0.0064 -0.1935  0.2706
11279S        S18083   6.110   7.177  45.239 -0.6667  0.2738  0.8335
11280S        S18084   1.108   4.371  27.240  0.3746  0.3149 -0.2346
11281S        S18085   4.332   4.177  21.025  0.0998  0.1350  0.1271
11282S        S18086   5.038   9.746  28.266 -0.4857  0.1294 -0.1034
11283S        S18087  10.115   5.984  29.472  0.5908  0.3327  0.2953
11284S        S18088   5.550   7.546  11.046 -0.4740 -0.2736 -0.2285
11285S        S18089  11.158   1.192  31.514  0.4796 -0.2134 -0.2529
11286S        S18090   0.878   3.457  15.529 -0.2312  0.3129  0.4087
11287S        S18091  11.577   7.342  17.395 -0.3032  0.3805 -0.2471
11288S        S18092   1.552   0.193  11.811  0.2765  0.3449  0.2608
11289S        S18093  12.151   7.070  17.807  0.3691  0.3299  0.3237
11290S        S18094  10.723   4.379  19.827 -0.7781  0.4951  0.0632
11291S        S18095  12.203   1.088  26.216 -0.4280  0.0135 -0.5138
11292S        S18096   9.792   1.271  43.224 -0.3815  0.0482  0.4400
11293S        S18097  10.356   4.645  20.744  0.0704  0.0641  0.0297
11294S        S18098  11.447   1.767  14.376  0.1768  0.2514 -0.1721
11295S        S18099   4.811   3.459  12.418 -0.0863 -0.0610  0.3094
11296S        S18100   6.898   0.413  26.750 -0.0431  0.0016 -0.2436
11297S        S18101   9.037  11.053  19.742  0.4051 -0.2410 -0.2666
11298S        S18102   5.292  10.363  23.882  0.2670  0.0334  0.9570
11299S        S18103   7.721  11.814  21.216 -0.0427 -0.1233 -0.2033
11300S        S18104   1.027   0.794  25.097 -0.2859  0.4728 -0.1198
11301S        S18105   9.235  11.607  20.899  0.0698  0.4268 -0.2121
11302S        S18106   2.188  11.220  14.662 -0.0638 -0.1222 -0.3505
11303S        S18107   0.652  11.973  35.762 -0.2031  0.0635  0.1327
11304S        S18108   8.242   2.160  13.991  0.1125  0.2128  0.0297
11305S        S18109  11.502   1.752  29.085  0.6375 -0.1726 -0.2255
11306S        S18110   6.548   8.527  18.386 -0.1739  0.4047  0.0437
11307S        S18111   7.312   1.881  22.992 -0.3883  0.1545  0.2451
11308S        S18112   2.935   1.303  18.144 -0.5230 -0.0499  0.3826
11309S        S18113   2.231   5.356  17.152  0.0912  0.2076 -0.1583
11310S        S18114   0.106   2.449  14.706  0.2360  0.0225 -0.2748
11311S        S18115   0.705   0.285  15.024  0.1414  0.0578 -0.2498
11312S        S18116   9.954   4.571  17.075 -0.2170  0.2978  0.0218
11313S        S18117   3.344   8.006  24.034 -0.2681 -0.1854  0.3571
11314S        S18118   4.562   1.349  14.577 -0.1297 -0.3647  0.0454
11315S        S18119  12.341   6.837  13.716  0.9424  0.1365  0.2525
11316S        S18120   8.046   2.849  31.949 -0.5875 -0.3034  0.5725
11317S        S18121   6.587   5.158  49.034 -0.0488  0.0849 -0.0399
11318S        S18122   8.856   4.991  14.749  0.4035  0.2642 -0.1195
11319S        S18123  12.087   3.551  23.696  0.3695 -0.0169  0.2347
11320S        S18124  10.326   6.278  21.541 -0.1103  0.4761 -0.2303
11321S        S18125   5.461   0.194  14.629  0.1999  0.3835  0.1267
11322S        S18126   9.640   1.268  32.043 -0.3352 -0.5073  0.6300
11323S        S18127   2.688  11.585  35.241 -0.4592  0.3018  0.1700
11324S        S18128   4.862   4.337  22.310  0.0521  0.0969 -0.4429
11325S        S18129   0.652   1.416  27.847  0.4726 -0.2070  0.1572
11326S        S18130   6.698   3.342  26.114  0.4909  0.3764 -0.0415
11327S        S18131   8.800   5.087  19.003 -0.1338 -0.3097 -0.0075
11328S        S18132   7.039   3.589  19.833 -0.2636  0.0957 -0.4637
11329S        S18133  12.352   4.335  11.554  0.1049  0.1881  0.2384
11330S        S18134  11.091   7.175  27.848  0.2406  0.1843  0.4612
11331S        S18135   8.194  10.447  14.934 -0.4763  0.1386  0.4526
11332S        S18136   1.110  12.002  12.549  0.1707 -0.4484 -0.3196
11333S        S18137   3.074   7.923  25.299  0.3692  0.6036  0.0047
11334S        S18138   0.850   4.907  14.336  0.2994 -0.6768 -0.3096
11335S        S18139   2.032  12.178  11.820  0.3663 -0.0022  0.0899
11336S        S18140   9.217   2.072  32.187  0.1752 -0.1367 -0.0375
11337S        S18141   6.887  10.000  27.280 -0.6055  0.0460  0.3949
11338S        S18142   2.055   6.845  27.264  0.1461 -0.1270  0.0610
11339S        S18143  11.463   2.972  28.039  0.0354 -0.0808 -0.1461
11340S        S18144   9.860   7.850  26.432  0.3499 -0.4878  0.1073
11341S        S18145   4.777   8.247  19.293  0.1684 -0.0497 -0.0360
11342S        S18146   1.458  10.057  20.718 -0.6270 -0.1587 -0.2725
11343S        S18147   4.712   6.917  12.194 -0.5551 -0.7003 -0.1497
11344S        S18148   8.897   4.460  14.599  0.2133  0.4379 -0.3564
11345S        S18149   8.899   5.787  31.686  0.1349 -0.0321 -0.1734
11346S        S18150   4.109   6.823   4.756  0.3908 -0.3442  0.2994
11347S        S18151  11.833   9.856  24.195  0.1942  0.3837  0.3139
11348S        S18152   7.243   2.471  14.922  0.0096 -0.0240 -0.2377
11349S        S18153   0.104   5.055  19.691  0.1211  0.6076 -0.1351
11350S        S18154   9.426   7.375  28.644  0.6660  0.2093 -0.0093
11351S        S18155   9.992   6.337  11.358 -0.7090 -0.3458 -0.3023
11352S        S18156   1.302   7.531  16.823  0.5863 -0.2213 -0.1060
11353S        S18157   4.714  11.479  25.328  0.1406  0.2296 -0.6626
11354S        S18158   8.432   3.507  26.560  0.2310 -0.3825  0.0826
11355S        S18159  12.022   4.218  19.154  0.0421 -0.3655 -0.7745
11356S        S18160   6.845   3.511  13.182  0.0802  0.4685  0.3141
11357S        S18161  11.104   3.828  12.607 -0.4544  0.2533 -0.5398
11358S        S18162   6.503   3.275  14.353  0.4190  0.3456 -0.2653
11359S        S18163  11.968   5.163  11.569 -0.1349 -0.0763 -0.0612
11360S        S18164   1.647  10.921  30.039  0.6227  0.0202 -0.1666
11361S        S18165   6.843   4.556  20.344  0.4760  0.3101 -0.4604
11362S        S18166   5.092   2.013  15.080  0.1958  0.0380  0.0362
11363S        S18167  12.184   9.131  18.011 -0.8940  0.2208 -0.3282
11364S        S18168   3.447   7.501  12.414  0.1187 -0.0155 -0.0454
11365S        S18169  11.070   7.603  15.825  0.0972 -0.2942  0.4917
11366S        S18170   5.784  10.262  15.926  0.1465  0.3671 -0.2291
11367S        S18171   3.603   8.561  26.798  0.4893 -0.2306 -0.2140
11368S        S18172   5.312   5.208  16.546  0.0494  0.1572 -0.1976
11369S        S18173   3.261   1.149  15.089 -0.0633 -0.1387 -0.4309
11370S        S18174   7.447   4.840  13.292  0.3781  0.2683  0.2162
11371S        S18175  11.363   5.950  15.282  0.2015  0.2541 -0.0898
11372S        S18176   0.555   9.390  23.124 -0.1120 -0.3502 -0.0715
11373S        S18177  10.006   7.493  25.187  0.1575 -0.3132  0.4242
11374S        S18178  12.279   7.668  14.451 -0.1788 -0.7802  0.3451
11375S        S18179   1.287   7.208  17.210 -0.0298  0.1479 -0.0671
11376S        S18180   8.274   0.119  19.269 -0.1319 -0.2553  0.3584
11377S        S18181  12.162   5.018  25.943  0.2401  0.1460 -0.1713
11378S        S18182  11.831   2.853   3.823 -0.0359  0.0068  0.1710
11379S        S18183   6.832  10.478  25.799  0.0231  0.3726  0.2430
11380S        S18184   4.675   8.843  30.388 -0.1316  0.2454 -0.3100
11381S        S18185   7.635  12.030  17.273  0.2451  0.0609 -0.1301
11382S        S18186   9.052   5.048  25.141  0.1953  0.0538  0.5020
11383S        S18187   2.559  10.299  20.819  0.2992 -0.0144  0.1661
11384S        S18188   4.873   6.864  12.782  0.2126 -0.3541 -0.2445
11385S        S18189   2.420   6.113  18.003  0.0343  0.0582 -0.3354
11386S        S18190   4.978   0.906  12.577  0.2109 -0.3084 -0.2655
11387S        S18191   6.868   2.939  26.383  0.1504 -0.1030  0.2078
11388S        S18192   0.222   6.669  30.172 -0.3267  0.2365 -0.2521
11389S        S18193   7.765   4.399  20.693  0.2295  0.6633  0.0643
11390S        S18194  10.114   9.729  26.022  0.0340  0.5184  0.3172
11391S        S18195   1.615   9.601  42.435 -0.3723  0.2282  0.2783
11392S        S18196   1.291   1.134  24.656 -0.0365 -0.0542 -0.3437
11393S        S18197   2.621   5.749  15.989  0.0345 -0.0140  0.3274
11394S        S18198   6.399  10.575  31.763  0.6497 -0.2197  0.2876
11395S        S18199   2.593   7.836  29.598 -0.1601 -0.7175  0.3262
11396S        S18200   3.729   1.786  18.359 -0.0824  0.7763  0.3511
11397S        S18201   3.178   6.643  32.779 -0.7592  0.2693 -0.0218
11398S        S18202   0.517  11.701  19.457 -0.1978 -0.1567 -0.4237
11399S        S18203   9.552   6.356  16.931 -0.5090  0.3969 -0.1352
11400S        S18204   8.190   8.313  21.096  0.0166  0.0270 -0.1818
11401S        S18205   4.064  10.251  20.625  0.2166 -0.3465  0.0958
11402S        S18206   6.025   0.951  28.624 -0.2526 -0.0026 -0.2671
11403S        S18207   8.614  11.077  29.842  0.5658  0.4270  0.4967
11404S        S18208   5.293   6.051  16.738 -0.3251 -0.2639  0.4571
11405S        S18209   8.575   1.381  20.339  0.0061  0.6033 -0.3530
11406S        S18210   8.096   4.462  15.233 -0.3719 -0.3185 -0.2954
11407S        S18211   1.106   0.909  30.430 -0.3009  0.6999 -0.0194
11408S        S18212  12.113  12.199  24.116 -0.8621 -0.1403 -0.0587
11409S        S18213   5.832   8.148  12.255 -0.5871  0.3044 -0.0609
11410S        S18214  10.727   2.827  11.543  0.0296 -0.1259  0.1810
11411S        S18215   9.402  11.649  25.120 -0.1110  0.1778  0.3586
11412S        S18216   7.905  10.918  29.020  0.1202  0.4711 -0.0686
11413S        S18217   3.594   9.356  13.561  0.1492 -0.4406 -0.1447
11414S        S18218   9.267   8.658  29.289  0.4690 -0.2634  0.1651
11415S        S18219   2.717   5.612  18.840  0.3681  0.0589 -0.0367
11416S        S18220   3.162  11.970  32.105 -0.3826 -0.4858 -0.1633
11417S        S18221   1.300   1.037  17.980 -0.2721  0.2383 -0.6304
11418S        S18222   6.625   2.099  20.466 -0.5410  0.0196 -0.1414
11419S        S18223   3.560  11.978  17.809 -0.6756  0.2114 -0.0417
11420S        S18224   9.935  11.378  25.895  0.5184  0.1108 -0.2528
11421S        S18225  11.955   2.709  15.518 -0.0061 -0.0783 -0.1284
11422S        S18226   7.745   1.288  26.228  0.3005 -0.0860 -0.3429
11423S        S18227   1.432  10.704  18.759  0.0120 -0.0082 -0.2860
11424S        S18228  10.304   7.940  29.157  0.1426  0.5011  0.2087
11425S        S18229   2.658   0.146  15.247  0.1554 -0.0358  0.3692
11426S        S18230  12.153   2.868  29.956 -0.1942 -0.1485 -0.0305
11427S        S18231   4.703   6.602  21.627  0.1394  0.2614  0.2570
11428S        S18232  11.207  11.112  16.432 -0.0036 -0.1638  0.7792
11429S        S18233   3.648   2.510  17.895  0.9170  0.1755  0.9283
11430S        S18234  11.340   0.425  16.031  0.0312 -0.2857  0.2865
11431S        S18235   5.258   0.016  23.571 -0.5268  0.4081 -0.5121
11432S        S18236   2.484   8.547  17.533 -0.0571 -0.1396  0.4523
11433S        S18237   2.029   8.886  30.168  0.0468  0.0289  0.3410
11434S        S18238   9.673  11.596  15.774  0.4153 -0.5990  0.5052
11435S        S18239   9.678   3.596  15.935  0.1768 -0.5939 -0.1954
11436S        S18240   3.177   5.961  14.757  0.1630  0.1083 -0.1066
11437S        S18241   6.750   9.970  11.780 -0.5636  0.0569  0.2929
11438S        S18242   0.074  10.773  21.829  0.2925 -0.1329  0.6085
11439S        S18243   3.179  12.294  24.423  0.4834  0.5137 -0.1539
11440S        S18244   5.394   7.921  26.005  0.3084 -0.1696 -0.0908
11441S        S18245   1.821   6.691  15.936 -0.2359  0.1278 -0.0299
11442S        S18246   9.542   3.650  19.936 -0.0462 -0.2071 -0.1686
11443S        S18247   8.039   9.770  11.091 -0.1808  0.0801  0.1901
11444S        S18248   9.679   9.044  15.440  0.2384 -0.5872  0.1804
11445S        S18249   0.232   5.644  12.731  0.2655  0.0941  0.2897
11446S        S18250   4.598   3.136  20.970 -0.1042 -0.5160 -0.5198
11447S        S18251   4.012   4.316  10.531 -0.1219 -0.2300  0.3919
11448S        S18252   8.304   7.377  32.207 -0.6276  0.4530  0.3643
11449S        S18253   7.276   2.146  25.822 -0.1314 -0.1483 -0.0432
11450S        S18254   4.411   8.207  28.245  0.3057  0.0798 -0.6267
11451S        S18255  11.198   3.400  15.006 -0.2869 -0.2405 -0.2591
11452S        S18256   8.020   3.527  11.377  0.2716 -0.2512 -0.5889
11453S        S18257   8.275   5.928  11.716 -0.0732 -0.2060 -0.0419
11454S        S18258   3.516   1.355  14.510  0.0715 -0.2276  0.1736
11455S        S18259  11.644   3.460  27.761  0.0535 -0.0159  0.2390
11456S        S18260   6.077  11.827  15.804  0.1263 -0.0046  0.4037
11457S        S18261   9.586   5.893  21.697 -0.0734  0.2637  0.0338
11458S        S18262  11.931  12.337  26.373  0.1593  0.0352  0.5593
11459S        S18263   2.577   1.917  29.002  0.1158 -0.0700 -0.0168
11460S        S18264   2.415   6.882  24.459 -0.2154 -0.0046 -0.1728
11461S        S18265   5.788   0.945  28.123  0.5756  0.3140  0.2805
11462S        S18266   5.749  11.323  19.814 -0.2137  0.6638 -0.2128
11463S        S18267  11.510  11.270  17.758  0.0243  0.5436  0.1252
11464S        S18268   5.157   3.396  25.529  0.2975  0.5588 -0.1014
11465S        S18269   0.553  11.827  32.767 -0.1488 -0.2738  0.3090
11466S        S18270   5.993  10.648  32.154  0.2957  0.7107  0.4426
11467S        S18271   8.304   5.629  21.082 -0.9593 -0.2176  0.3474
11468S        S18272  10.748   3.779  13.949  0.5218 -0.1735  0.2632
11469S        S18273   5.364   8.147  17.370 -0.2882  0.3114 -0.2435
11470S        S18274  11.360   4.295  19.613 -0.0514 -0.3669 -0.1146
11471S        S18275   9.592   0.807  30.918 -0.7047  0.3477  0.2038
11472S        S18276   0.015   5.732  24.051  0.6723  0.0091 -0.5439
11473S        S18277   7.877   2.092  18.926  0.1674  0.0044 -0.2447
11474S        S18278  10.890   4.613  20.713 -0.0646  0.6167 -0.4564
11475S        S18279   0.003   2.844  31.243  0.1447 -0.0717 -0.0810
11476S        S18280   3.014   6.350  40.331  0.2181  0.2309  0.3914
11477S        S18281  10.785   8.550  19.403 -0.1181 -0.1805  0.4541
11478S        S18282   7.165  11.498  31.332 -0.4531  0.1233 -0.2428
11479S        S18283   1.202   9.894  35.105  0.2128  0.1354  0.2905
11480S        S18284   6.994  10.281  28.585 -0.2646 -0.4449 -0.4249
11481S        S18285  10.435   5.865  26.045  0.2062 -0.0498  0.4617
11482S        S18286   5.953   6.893  24.011 -0.1425 -0.0330 -0.3588
11483S        S18287   3.337  11.900  11.840  0.0083  0.1926 -0.4642
11484S        S18288   6.217   6.021  18.675  0.3308  0.0680  0.0523
11485S        S18289   1.170   8.959  12.943  0.0062 -0.1023 -0.4057
11486S        S18290  10.704   2.577  20.067 -0.0701 -0.6455  0.2377
11487S        S18291   9.741   5.243  21.205 -0.2762 -0.4917 -0.8740
11488S        S18292   9.488   8.906  19.339  0.0060 -0.1579 -0.1722
11489S        S18293   6.688   9.973  15.727 -0.0713 -0.0774 -0.0561
11490S        S18294   3.887  11.433  29.512  0.0906  0.1194  0.0875
11491S        S18295   8.637  11.316  14.360 -0.2022  0.0592  0.3623
11492S        S18296   1.549   6.335  16.945 -0.1086  0.1217 -0.3598
11493S        S18297  10.116   7.322  21.961 -0.3801 -0.2080 -0.5092
11494S        S18298   3.514   4.634  25.292  0.4686 -0.2029  0.3542
11495S        S18299   5.379  11.892  27.681  0.0588 -0.2129 -0.5284
11496S        S18300   5.365   4.355  25.114  0.3529 -0.4165  0.1243
11497S        S18301  12.058   9.593  23.163  0.1292  0.1956 -0.1998
11498S        S18302   4.543   3.281  19.970 -0.0770 -0.3457 -0.2306
11499S        S18303  10.628   3.378  27.208 -0.5851  0.4566  0.3339
11500S        S18304   2.927   1.349  30.326  0.3121 -0.1386 -0.1423
11501S        S18305   0.290   6.403  20.925  0.1752  0.2819  0.0692
11502S        S18306   3.470   0.485  13.994  0.5440  0.2062  0.0850
11503S        S18307   0.192   7.471  16.563  0.0049  0.1557 -0.0197
11504S        S18308  12.024   8.531  16.424  0.1280 -0.2102  0.0667
11505S        S18309   6.246   9.738  13.625 -0.3028  0.1227 -0.0216
11506S        S18310   0.202   4.995  23.598 -0.4688  0.2407 -0.0244
11507S        S18311   0.957   0.233  18.032 -0.0423 -0.5048  0.4536
11508S        S18312   7.730   5.177  18.356 -0.3681 -0.1135  0.3717
11509S        S18313  10.191   3.020  22.771  0.0438  0.1541  0.5335
11510S        S18314   8.796   7.767   8.774  0.0722  0.0466  0.3255
11511S        S18315   8.319   6.484  14.769  0.1939 -0.1672  0.2239
11512S        S18316   3.924   7.765  29.186 -0.1246  0.0303  0.2725
11513S        S18317   9.943  10.169  15.377  0.1091  0.0303  0.0147
11514S        S18318   8.753   7.407  17.589  0.0419  0.0634 -0.2194
11515S        S18319  10.220  10.098  17.225  0.3609  0.3032  0.5649
11516S        S18320  10.915   6.330  22.895 -0.1102 -0.4109 -0.5345
11517S        S18321   2.754   6.109  12.761 -0.7243  0.2054  0.0875
11518S        S18322   3.993  10.459  19.846  0.1633 -0.3793 -0.5561
11519S        S18323   9.490   1.904  13.855 -0.1774  0.1883  0.3412
11520S        S18324   5.330   5.398  21.668  0.1396 -0.1125 -0.1675
11521S        S18325   5.746   0.636  26.356  0.2929 -0.0009  0.3742
11522S        S18326   1.309   4.659  13.061  0.2773  0.1577  0.0046
11523S        S18327   1.114   0.082  33.417  0.1436  0.2202  0.8941
11524S        S18328   9.845   9.939  14.882  0.1307 -0.0966 -0.0093
11525S        S18329   8.468   8.981  29.260  0.1166  0.2274 -0.5619
11526S        S18330   2.446  12.161  16.869 -0.1056  0.2485  0.5353
11527S        S18331  10.617  11.658  18.203 -0.0761  0.7427 -0.0545
11528S        S18332   9.885   8.596  32.458 -0.3750  0.0747  0.0104
11529S        S18333   8.970  11.306  22.326  0.4233  0.2795 -0.2908
11530S        S18334   2.095   2.016  20.774 -0.3022 -0.7174 -0.0654
11531S        S18335   2.019   4.338  21.285  0.5575  0.2431  0.0525
11532S        S18336   9.850   1.075  24.286  0.2152  0.4324  0.2311
11533S        S18337   8.163   5.044  24.165  0.1895  0.6631  0.3081
11534S        S18338   9.328   1.806  16.816  0.0139  0.1702  0.2487
11535S        S18339   8.030   9.483  29.323 -0.4797 -0.2803  0.4543
11536S        S18340  10.195   2.007  17.110 -0.1260  0.3219 -0.0890
11537S        S18341   9.439   0.519  28.218  0.3458 -0.0640 -0.0144
11538S        S18342  10.480   4.926  31.881 -0.2494 -0.2396  0.9321
11539S        S18343   6.332   6.448  21.865 -0.2822  0.1432 -0.2797
11540S        S18344   7.489   8.812  26.485 -0.1164  0.0405  0.1540
11541S        S18345   3.002   7.386  17.248  0.2686 -0.2939 -0.2534
11542S        S18346   3.973   5.149  21.860 -0.2865  0.1396  0.2808
11543S        S18347  10.896   0.380  25.564 -0.2409  0.2387 -0.3038
11544S        S18348   9.618   4.742  12.056 -0.6362 -0.2480 -0.0471
11545S        S18349   9.599   6.965  23.224  0.0308 -0.1190  0.4773
11546S        S18350   8.656   9.656  29.251  0.1639 -0.2778 -0.1694
11547S        S18351   2.025  11.122  31.240 -0.2041  0.0205 -0.3808
11548S        S18352  10.189   3.079  18.800 -0.1054  0.2591 -0.6255
11549S        S18353   8.084   0.494  29.018 -0.2170 -0.3710  0.2425
11550S        S18354   2.776  11.977  29.526 -0.0267  0.2251  0.0951
11551S        S18355   9.661   9.254  48.434  0.4731  0.0787  0.1216
11552S        S18356   3.071   0.887  35.793  0.3426  0.0693  0.3046
11553S        S18357   1.012   8.609  23.139 -0.0640  0.4489  0.4658
11554S        S18358   2.826   8.837  17.232 -0.4427 -0.1929  0.2025
11555S        S18359   8.431   2.578  11.319 -0.2025  0.0716 -0.5790
11556S        S18360   2.253   6.372  11.620 -0.1513 -0.0772  0.1010
11557S        S18361   0.069   4.444  17.849  0.0392  0.1187  0.2649
11558S        S18362   9.142   6.515  18.715  0.1080 -0.3640  0.0019
11559S        S18363   0.938   6.013  15.451  0.0392 -0.2443 -0.3613
11560S        S18364   4.162   3.172  29.545 -0.1829  0.2920 -0.0223
11561S        S18365   0.132   8.461  21.325 -0.5126 -0.5555  0.2704
11562S        S18366   1.267   0.079  15.538 -0.2954  0.2461  0.1776
11563S        S18367  10.211   4.640  29.832  0.7055  0.0091 -0.0874
11564S        S18368   4.737   4.000  15.696 -0.0494 -0.4237  0.0138
11565S        S18369   8.507  11.276  31.809  0.1294 -0.0768  0.0715
11566S        S18370   7.706   7.038  17.511  0.0700 -0.0700  0.1372
11567S        S18371  10.549   2.498  28.219  0.0108 -0.4751  0.6417
11568S        S18372   6.666   6.365  23.433 -0.8099  0.0499  0.1106
11569S        S18373   7.923   6.864  25.462  0.2189  0.6714  0.1388
11570S        S18374   6.205   1.201  27.617 -0.0577 -0.1536  0.6565
11571S        S18375   3.023   4.188  18.643  0.1110  0.0649  0.1500
11572S        S18376   3.273   7.456  20.084  0.0768 -0.0392 -0.2947
11573S        S18377   9.162   4.444  46.206 -0.4059 -0.6127  0.3789
11574S        S18378   9.018  11.451  24.130  0.3072 -0.3419  0.2103
11575S        S18379   0.883   6.881  16.015 -0.3063 -0.1815  0.3919
11576S        S18380   0.862   7.295  27.418  0.0129  0.3184 -0.1701
11577S        S18381   9.663   9.397  15.934 -0.3380 -0.9045  0.0363
11578S        S18382   0.531   5.640  25.765  0.2113  0.2339 -0.0583
11579S        S18383   9.163   7.118  22.972  0.0038 -0.1260 -0.1863
11580S        S18384   0.210   2.281  20.645  0.4136  0.3028  0.1545
11581S        S18385   3.925   5.571  20.113 -0.1701  0.1137  0.0512
11582S        S18386   4.025   5.084  16.183 -0.1334 -0.3755  0.1306
11583S        S18387   7.874   8.087  17.150 -0.2650 -0.0153 -0.1443
11584S        S18388   5.642   7.896  22.714 -0.0142 -0.7033 -0.1804
11585S        S18389   0.300   8.274  19.389 -0.0580 -0.4860 -0.0181
11586S        S18390  11.283   4.131  35.166  0.2855  0.0840  0.1925
11587S        S18391   6.493   5.124  27.097 -0.2338 -0.1243  0.0124
11588S        S18392   2.881   6.482  24.454  0.0453 -0.0457  0.1118
11589S        S18393   5.034   7.889  19.606  0.1047 -0.2423  0.1965
11590S        S18394   5.679   2.595  23.474  0.2784 -0.4599  0.1773
11591S        S18395   6.859   5.603  14.240 -0.3621  0.2874 -0.0623
11592S        S18396   5.214  11.428  25.239  0.0103  0.0157  0.5488
11593S        S18397  11.814  10.435  20.003 -0.0559 -0.4341 -0.5166
11594S        S18398   8.088   3.526  28.643  0.1304 -0.1363  0.0911
11595S        S18399   6.791   1.639  30.380 -0.4140 -0.4784  0.8566
11596S        S18400  10.825   5.428  17.829 -0.4495 -0.3707  0.2755
11597S        S18401  11.128  10.383  19.350  0.0919  0.3497 -0.2250
11598S        S18402   8.148  11.930  29.186 -0.5740  0.6124  0.2848
11599S        S18403   7.496   4.653  31.030 -0.1609  0.1569  0.3011
11600S        S18404   1.504   5.525  19.754  0.0313 -0.1741  0.0906
11601S        S18405   5.292  12.330  29.919  0.0674 -0.3387  0.2532
11602S        S18406  10.023  11.369  18.796  0.2756 -0.0757 -0.1770
11603S        S18407   4.802   2.769  21.773 -0.4755  0.2407 -0.2529
11604S        S18408   4.420   0.326  24.223 -0.2181  0.3903  0.0631
11605S        S18409   0.900  12.122  18.277 -0.3744  0.4174 -0.2540
11606S        S18410   8.258   6.351  12.854  0.1672  0.0849  0.3012
11607S        S18411   5.563   0.959  15.287  0.1755  0.0632  0.0349
11608S        S18412  10.373   7.270  25.757 -0.0832  0.1574  0.0282
11609S        S18413   3.125   5.909  19.049  0.0759 -0.7098 -0.1834
11610S        S18414   4.245   6.340  15.012 -0.2987  0.5026 -0.3844
11611S        S18415   3.150   7.753  26.563  0.3529 -0.0276 -0.1577
11612S        S18416   3.215  10.246  26.093 -0.1405  0.2456 -0.0597
11613S        S18417   3.557   2.531  14.419  0.0101 -0.0105 -0.2348
11614S        S18418   6.643   1.265  32.362 -0.6157  0.8553  0.1068
11615S        S18419   8.544  10.517  18.545 -0.0554  0.0969  0.3577
11616S        S18420  11.718   7.813  30.700  0.4153  0.2596  0.2334
11617S        S18421   2.520  11.088  28.014  0.4088  0.2866 -0.1980
11618S        S18422  11.448   2.631  13.298 -0.0665  0.2338  0.0972
11619S        S18423  10.645   3.112  27.652 -0.2693 -0.6681 -0.2931
11620S        S18424   1.077   9.758  11.748 -0.7324 -0.3606 -0.3818
11621S        S18425   0.067   2.180  11.117 -0.2216  0.1874 -0.1838
11622S        S18426   1.424   0.410  12.860  0.1911 -0.2239  0.4135
11623S        S18427   5.531   9.687  12.694 -0.0497 -0.1574 -0.1558
11624S        S18428   5.617   9.155  18.896  0.0587  0.0103 -0.1490
11625S        S18429   9.044   1.067  26.214 -0.1260  0.2449  0.1685
11626S        S18430   4.309   7.864  22.230 -0.3049 -0.0822  0.1838
11627S        S18431   4.796   1.119  23.361  0.5690  0.3206 -0.0791
11628S        S18432   5.417   8.826  12.939 -0.2642 -0.0841 -0.0035
11629S        S18433   9.071  10.997  27.180  0.2271  0.0688  0.0430
11630S        S18434   9.825  10.560  30.673  0.1745  0.3577 -0.5827
11631S        S18435   3.219   2.902  20.938 -0.2196 -0.2158 -0.3685
11632S        S18436   4.488  10.495  14.399 -0.6840  0.0340  0.3715
11633S        S18437   8.902   6.874  13.256  0.3070 -0.0821 -0.0227
11634S        S18438   8.294   8.834  12.931 -0.3832 -0.3124  0.1505
11635S        S18439   2.613   4.745  14.291 -0.3811  0.5288  0.5657
11636S        S18440   6.473  11.419  27.648 -0.3995  0.2415  0.2936
11637S        S18441   4.616  10.610  28.149 -0.1226 -0.2139 -0.1524
11638S        S18442   8.355   2.448  16.993 -0.0717 -0.5908 -0.0144
11639S        S18443   8.363   4.900  20.145 -0.0428 -0.4644  0.0497
11640S        S18444   5.922   0.717  23.292  0.1220 -0.5442 -0.1517
11641S        S18445  11.838   9.752  31.343  0.5307 -0.4092  0.0602
11642S        S18446   9.288  12.030  13.990  0.2609 -0.1436 -0.0509
11643S        S18447   3.209   2.434  12.084 -0.4792  0.0935 -0.3764
11644S        S18448   0.887   8.625  27.376 -0.3761  0.4678  0.2111
11645S        S18449  10.833   6.227  31.202  0.2699  0.2161  0.3386
11646S        S18450   8.229   9.154  27.231 -0.1238  0.2427 -0.0976
11647S        S18451   7.263  10.305  19.251 -0.3003  0.1931  0.2206
11648S        S18452   4.092   8.023  18.469  0.0508 -0.6071 -0.1640
11649S        S18453   9.726   9.762  31.415 -0.4933 -0.6343  0.1714
11650S        S18454   5.438   8.675  29.673 -0.1164 -0.1878  0.1845
11651S        S18455  12.167   5.984  19.443  0.0746  0.0034 -0.0263
11652S        S18456   4.973   4.949  21.660  0.1439 -0.0315  0.1534
11653S        S18457   1.209   3.308  14.334 -0.6450 -0.1719 -0.2416
11654S        S18458   1.984   2.162  12.958 -0.0348  0.1281 -0.4223
11655S        S18459   4.001   1.980  20.280  0.5183  0.1011 -0.2513
11656S        S18460   2.810   7.681  25.626  0.3992 -0.1076  0.3246
11657S        S18461   5.336  11.860  13.602  0.0499  0.1345  0.4195
11658S        S18462   1.330   9.389  27.581 -0.5611  1.0137  0.2923
11659S        S18463   9.067   2.351  15.950 -0.1974 -0.1549  0.2984
11660S        S18464   5.386   4.306  12.263  0.0658  0.0958 -0.2675
11661S        S18465  10.731   5.307  24.556 -0.1209 -0.4964 -0.0094
11662S        S18466   8.614   9.026  20.544  0.2133  0.0296  0.1840
11663S        S18467   7.405   6.986  14.699 -0.4225  0.0536  0.4136
11664S        S18468   6.036   8.913  16.391 -0.1524  0.0935 -0.9484
11665S        S18469   2.560   7.877  24.548 -0.4251 -0.1864  0.0068
11666S        S18470   2.389   4.972  13.857  0.1542  0.1086  0.4982
11667S        S18471   3.067   3.948  14.694 -0.1755 -0.3248  0.0396
11668S        S18472   8.446   7.712  20.940 -0.1967  0.2578  0.0581
11669S        S18473   0.250   4.222  23.858 -0.0577 -0.2642  0.3729
11670S        S18474   0.583   9.519  26.458  0.1536 -0.1742  0.3518
11671S        S18475   9.556   5.340  32.107 -0.2326  0.4057 -0.1394
11672S        S18476   4.979   8.980  16.022  0.4182  0.4323 -0.3105
11673S        S18477   5.068  10.512  24.280  0.1566  0.1534 -0.3237
11674S        S18478   7.105  11.867  49.129 -0.1897 -0.2710  0.5161
11675S        S18479   5.329  11.594  14.073 -0.1700  0.1973 -0.0411
11676S        S18480   4.696   2.042  20.944  0.6007  0.1154  0.3577
11677S        S18481   9.230   0.097  27.211 -0.4504  0.3352 -0.1005
11678S        S18482  11.411   3.767  19.691 -0.2110  0.4585 -0.4181
11679S        S18483   3.416   0.802  14.737 -0.2933 -0.1075 -0.2979
11680S        S18484  11.098  10.647  18.920  0.2329 -0.8218  0.5655
11681S        S18485   8.363   0.810  13.041 -0.2795 -0.1026 -0.1313
11682S        S18486   7.474   6.641  22.299 -0.1637  0.0223  0.0016
11683S        S18487   7.354   2.393  11.038  0.6304 -0.2221 -0.2162
11684S        S18488   5.331   7.067  28.602 -0.0798  0.0674  0.1728
11685S        S18489   6.580   3.514  22.122  0.0787  0.4071 -0.0767
11686S        S18490  12.265   5.558  12.318 -0.3071  0.1740 -0.4284
11687S        S18491   2.651   5.404  22.360 -0.9137 -0.4195  0.4692
11688S        S18492   3.320   9.911  13.089  0.4562 -0.1003 -0.0660
11689S        S18493   2.351   8.817  16.062  0.2356 -0.5514 -0.2238
11690S        S18494  12.039   3.882  11.961 -0.2636 -0.3658  0.4149
11691S        S18495   6.816  11.447  16.271 -0.0702  0.1381 -0.1060
11692S        S18496  10.817   6.207  14.198  0.2535 -0.0367  0.0659
11693S        S18497   9.235   7.979  13.322 -0.1255 -0.1489  0.3730
11694S        S18498   8.619   6.862  28.166 -0.2141 -0.1872  0.0554
11695S        S18499   7.501   6.661  24.658 -0.1997 -0.3240  0.4610
11696S        S18500   3.304  10.078  17.031  0.1663 -0.6132  0.0013
11697S        S18501  12.288   4.345  46.103  0.1455  0.1347 -0.1568
11698S        S18502   3.820  11.286  20.852 -0.1220  0.6953 -0.1555
11699S        S18503   5.334   8.136  30.932  0.0723  0.1888 -0.2959
11700S        S18504   6.218   1.911  14.881 -0.0572 -0.0835 -0.0669
11701S        S18505   1.629   7.550  29.191 -0.1589  0.4890  0.0215
11702S        S18506   6.525  10.080  22.807  0.0111  0.2888  0.1779
11703S        S18507   4.253   2.997  28.440 -0.1276  0.0517 -0.5286
11704S        S18508   5.918   7.137  19.250 -0.5536 -0.0947  0.6443
11705S        S18509   8.044   9.600  21.346 -0.4340 -0.3084 -0.1197
11706S        S18510   2.565   3.587  17.351 -0.3357 -0.0651  0.2967
11707S        S18511   1.343   6.349  25.697 -0.1043  0.3276 -0.0668
11708S        S18512   7.091  10.808  12.899 -0.1864  0.4076 -0.1225
11709S        S18513   0.082   3.490  26.538  0.0562  0.3669  0.0933
11710S        S18514   7.740   0.939  17.013  0.1080  0.1391  0.2553
11711S        S18515   8.023   2.448  10.030  0.3816 -0.2461  0.3843
11712S        S18516  11.963   3.563  12.350  0.0230  0.3193 -0.0395
11713S        S18517  10.012   6.055  20.214 -0.0437 -0.1711  0.4049
11714S        S18518   7.698   1.869  29.988 -0.9760 -0.0716  0.2176
11715S        S18519   3.404   4.603  19.461 -0.3592  0.1031 -0.0850
11716S        S18520   4.979   6.881  19.695 -0.3672 -0.1715 -0.1956
11717S        S18521   9.794  10.427  20.117  0.2558 -0.5363  0.1823
11718S        S18522   4.317   0.235  30.584 -0.0020 -0.5337  0.1584
11719S        S18523   0.926   7.796  30.625  0.5269 -0.3358  0.3240
11720S        S18524   7.978   5.117  21.985  0.0815  0.1433  0.2011
11721S        S18525   6.894   4.078  17.662 -0.3229 -0.0980 -0.2836
11722S        S18526  11.710   2.619  21.516  0.0449  0.5840 -0.3071
11723S        S18527   4.881   6.416  20.743  0.1427 -0.0868  0.1411
11724S        S18528   7.721   2.592  12.852  0.0925 -0.1048 -0.1821
11725S        S18529   8.536   3.055  15.863  0.4469 -0.1495 -0.2764
11726S        S18530   9.158   4.986  29.132 -0.5560 -0.0826 -0.0158
11727S        S18531   1.917  11.087  18.642  0.1872 -0.1947  0.4896
11728S        S18532  10.031   6.492  14.440 -0.5696 -0.0434 -0.1252
11729S        S18533   7.452   4.436  15.436  0.3777 -0.2721  0.1335
11730S        S18534   6.206   6.193  24.366 -0.6384  0.2783 -0.1445
11731S        S18535   6.473   6.683  17.900 -0.0216 -0.5719 -0.2850
11732S        S18536   1.333   2.412  22.668  0.3386 -0.0618  0.6128
11733S        S18537   5.019   3.817  18.027 -0.6565 -0.1357 -0.2731
11734S        S18538   8.362   4.608  23.142  0.0887  0.2521  0.3422
11735S        S18539   4.696   6.155  14.079  0.1148  0.1357  0.2530
11736S        S18540  11.709   9.569  12.805  0.3604 -0.5389  0.1061
11737S        S18541   9.659   2.218  36.030 -0.3144  0.4290  0.3006
11738S        S18542   4.022   8.856  24.619 -0.3853 -0.4952  0.1960
11739S        S18543   1.661   8.494  15.788 -0.4315  0.0380 -0.3073
11740S        S18544   6.255   9.765  17.564  0.0740  0.2916  0.2356
11741S        S18545   6.989   0.282  12.348  0.2812  0.1721 -0.3206
11742S        S18546  10.748   9.866  31.130 -0.8684  0.0722  0.0753
11743S        S18547   9.115   9.052  30.244 -0.4527  0.7247  0.4577
11744S        S18548   1.166   9.218  31.026  0.4957 -0.5027  0.1762
11745S        S18549   8.692   2.422  27.496  0.0706  0.1463 -0.0428
11746S        S18550  11.633   8.817  17.289  0.0117  0.1834 -0.2195
11747S        S18551   1.915   1.998  14.027 -0.2691  0.3002 -0.0995
11748S        S18552   9.057  11.325  29.631 -0.4154 -0.0221  0.2745
11749S        S18553   2.344   9.193  18.828 -0.1817  0.1730  0.1623
11750S        S18554   6.639   0.363  13.322  0.2675 -0.0739 -0.0742
11751S        S18555  10.357   2.422  26.538  0.1891  0.0155  0.8822
11752S        S18556   3.774   8.563  12.060  0.8464 -0.3816 -0.3665
11753S        S18557  10.688   1.048  26.297 -0.5483  0.5551  0.2073
11754S        S18558   0.357   7.181  12.480  0.1483  0.4304  0.2134
11755S        S18559  10.420   8.508  13.011 -0.0509  0.0846 -0.3212
11756S        S18560   5.075   8.343  20.057 -0.4367  0.5884 -0.4200
11757S        S18561   5.804   7.443  26.783 -0.1107  0.1994 -0.4479
11758S        S18562   7.048   5.723  15.814 -0.4478 -0.5550 -0.0559
11759S        S18563   5.065   2.905  22.223  0.1123  0.1641  0.0321
11760S        S18564   5.047   2.832  19.182  0.6900 -0.5927 -0.0260
11761S        S18565   8.828   2.753  24.214 -0.2601 -0.4882  0.3886
11762S        S18566   7.451   8.164  12.857 -0.2647  0.4208  0.5269
11763S        S18567   4.460   4.030  17.773 -0.3834 -0.4402  0.4167
11764S        S18568  10.975   6.589  30.733  0.9160  0.8620  0.2338
11765S        S18569   3.695   9.226  14.093 -0.7639 -0.3019  0.1370
11766S        S18570   9.626   1.194  20.679  0.2380  0.3483 -0.5089
11767S        S18571   9.658   3.442  17.481 -0.0994  0.0850 -0.3440
11768S        S18572   3.176   2.976  12.852  0.1247 -0.2761  0.1903
11769S        S18573   8.302  10.294  30.417 -0.6939 -0.2482  0.1255
11770S        S18574   2.078   8.329  26.722  0.0067 -0.1003  0.0859
11771S        S18575   9.000  11.364  26.103  0.0261  0.2856  0.3447
11772S        S18576   2.096   0.404  11.173 -0.5858 -0.1051  0.0043
11773S        S18577   2.093   5.540  21.068  0.0090 -0.0136  0.2252
11774S        S18578   3.783   6.202  26.867 -0.9300 -0.0583 -0.0658
11775S        S18579   1.271   8.850  27.628  0.4356 -0.0262 -0.1792
11776S        S18580   7.829   1.217  21.100  0.3758 -0.1937 -0.1571
11777S        S18581   6.672   8.565  29.699 -0.2057 -0.6507  0.9807
11778S        S18582   1.588   8.342  10.801 -0.0654 -0.4295 -0.4925
11779S        S18583   7.801   4.787  15.589  0.3215 -0.3340  0.5671
11780S        S18584  11.012   5.677  18.875  0.2547  0.2882 -0.1177
11781S        S18585   5.807   8.043  24.185 -0.4925  0.4937 -0.2492
11782S        S18586   5.257   2.186  24.861  0.4945  0.5660 -0.1906
11783S        S18587   0.341  11.927  12.675 -0.4175 -0.3045  0.3054
11784S        S18588  10.239   3.838  17.739  0.1306 -0.1287 -0.3154
11785S        S18589   1.551   4.517  12.547 -0.1211 -0.0197  0.3316
11786S        S18590   2.660   5.460  17.523  0.1033  0.1496  0.0721
11787S        S18591   1.221   6.007  16.461  0.0927 -0.1158 -0.1224
11788S        S18592   5.035   6.135  28.871  0.2826  0.0281 -0.5032
11789S        S18593   4.389   8.040  17.088 -0.2122 -0.5245 -0.2023
11790S        S18594   1.725   1.432  19.715 -0.2822 -0.0360 -0.3814
11791S        S18595   9.351   4.207  22.368  0.1792  0.0414  0.0872
11792S        S18596   2.527   0.960  26.281 -0.3115  0.1742  0.1505
11793S        S18597   0.485   6.068  14.653  0.2678 -0.4819  0.1086
11794S        S18598   3.123  11.661  24.196 -0.3390 -0.0898  0.0500
11795S        S18599   9.479   9.380  23.511  0.0561  0.6525 -0.3685
11796S        S18600   0.380   9.677  10.782 -0.0059 -0.1665  0.0274
11797S        S18601   0.901   2.716  24.690 -0.2950 -0.0236  0.5472
11798S        S18602   7.926   1.526  24.823  0.0120  0.1500 -0.7442
11799S        S18603   6.658   3.760  12.689  0.2139 -0.1013  0.0336
11800S        S18604   9.102   4.374  24.083 -0.2465  0.1071 -0.0788
11801S        S18605   7.107   3.790  24.933 -0.1711 -0.5045 -0.1450
11802S        S18606   9.627   1.223  13.413 -0.0594 -0.3085  0.1918
11803S        S18607   3.442   5.988  12.090  0.5125  0.5842 -0.2964
11804S        S18608   5.563   4.020  15.316 -0.1055 -0.1856 -0.1072
11805S        S18609   3.622   4.869  26.920 -0.2248 -0.0794  0.2079
11806S        S18610   0.165   6.962  14.964  0.3614 -0.3731  0.3405
11807S        S18611   5.547   3.834  19.583 -0.3879  0.2584 -0.0725
11808S        S18612   4.742   4.571  13.527 -0.2146 -0.0373  0.3956
11809S        S18613   7.989   3.390  13.940  0.0859  0.0621 -0.0177
11810S        S18614   8.108   6.477  31.972  0.8416 -0.0814  0.9597
11811S        S18615   2.045   5.325  13.136 -0.0866 -0.0858  0.1715
11812S        S18616   0.586   3.898  21.590  0.0217 -0.1030  0.3162
11813S        S18617   0.934   8.466  21.695 -0.2560  0.0155 -0.1563
11814S        S18618   7.663   8.176  27.399 -0.5934  0.0659  0.0192
11815S        S18619   6.245  10.273  15.695 -0.0360  0.0164  0.1238
11816S        S18620   9.134   9.790  21.315  0.0965  0.0386 -0.0020
11817S        S18621   9.231   4.003  27.526  0.6924 -0.6967 -0.1002
11818S        S18622   7.179   4.397  20.750 -0.1999 -0.0482 -0.4685
11819S        S18623  10.884   8.585  12.720  0.0325 -0.2965 -0.7326
11820S        S18624   8.105   5.011  14.941 -0.1093  0.1639 -0.4880
11821S        S18625   3.640   4.448  13.711  0.2830  0.0256  0.1666
11822S        S18626   6.662   0.812  20.771  0.0814 -0.0817  0.1182
11823S        S18627   7.368   8.850  15.136  0.1663 -0.9019  0.2490
11824S        S18628   0.179   6.831  28.387 -0.0299 -0.2253  0.2905
11825S        S18629   4.142   5.057  25.161 -0.6556 -0.0049 -0.2861
11826S        S18630   6.153   5.664  21.571 -0.0677  0.2733 -0.0241
11827S        S18631   9.703   1.925  11.693 -0.3159 -0.0002  0.1010
11828S        S18632   9.612   3.029  19.150 -0.0637  0.0858  0.2155
11829S        S18633   9.290   8.030  11.920  0.1611 -0.0963  0.3423
11830S        S18634   2.707   2.536  21.363  0.2008 -0.5881  0.1949
11831S        S18635   2.944   4.329  25.024 -0.2623 -0.2818  0.1384
11832S        S18636  10.728   3.970  28.208  0.2780 -0.0730  0.4960
11833S        S18637   0.103  10.598  13.112  0.2487  0.0526 -0.2257
11834S        S18638   5.910   2.331  13.514  0.1683  0.2623 -0.0680
11835S        S18639   6.928   7.756  17.856 -0.4149 -0.2796 -0.1529
11836S        S18640   1.351   1.247  25.758  0.1481  0.3854  0.1020
11837S        S18641   9.926   3.455  30.339  0.5639 -0.2947  0.4610
11838S        S18642   8.316   0.535  14.798  0.4780 -0.3957  0.2701
11839S        S18643   2.841   5.562  29.530  0.2157  0.8187  0.1890
11840S        S18644   7.230   1.966  29.322 -0.2548 -0.2479  0.1413
11841S        S18645   4.902  11.734  28.143  0.2349 -0.1952 -0.1497
11842S        S18646   2.784   6.994  31.336  0.3960 -0.3154 -0.3910
11843S        S18647  11.265   7.240  16.823 -0.1326  0.0541  0.0311
11844S        S18648   6.145   2.600  11.903 -0.0549 -0.2086 -0.0976
11845S        S18649  11.119   2.456  25.801 -0.2419  0.0302 -0.1784
11846S        S18650   1.362   2.148  26.694  0.1074 -0.1048 -0.2154
11847S        S18651   7.612   6.485  18.873  0.3734 -0.2159 -0.2718
11848S        S18652   9.626   4.161  21.522  0.3688 -0.2548 -0.0013
11849S        S18653   5.242   9.706  29.578  0.5228 -0.5271 -0.8029
11850S        S18654   7.053   1.969  23.361  0.4158  0.2885 -0.3177
11851S        S18655   6.692   5.982  17.824 -0.0125  0.2025 -0.6644
11852S        S18656   7.435   1.311  24.715  0.1430 -0.3979  0.3166
11853S        S18657   2.053   2.785  24.723  0.0696  0.3717  0.2745
11854S        S18658   7.567   9.829  13.660  0.2384 -0.6722 -0.0553
11855S        S18659   3.993   4.616  18.714  0.0010 -0.2032 -0.2346
11856S        S18660   5.193   3.314  26.296 -0.1840  0.1345  0.1237
11857S        S18661   8.418   0.431  25.633  0.4342 -0.1436 -0.1478
11858S        S18662   3.846   0.813  33.554 -0.0435  0.4762  0.4366
11859S        S18663  10.939   3.932  15.942  0.1188 -0.1857 -0.1492
11860S        S18664   8.860  10.943  22.670  0.0383 -0.4973 -0.4168
11861S        S18665   6.471   5.083  18.831 -0.4845  0.0984 -0.0654
11862S        S18666   9.645   8.906  22.484  0.2661  0.5929 -0.2688
11863S        S18667   8.146  10.920  27.108 -0.1807 -0.1547 -0.0858
11864S        S18668   4.685   0.967  11.570 -0.0021 -0.3742  0.2222
11865S        S18669   5.528   6.648  17.223 -0.1488  0.2004 -0.0446
11866S        S18670   3.558   4.628  18.522 -0.0094 -0.1636  0.6146
11867S        S18671   7.287   5.983  18.655  0.1745  0.0441 -0.1840
11868S        S18672  11.663   6.753  23.021 -0.1362 -0.3596 -1.0183
11869S        S18673  10.622   1.467  13.642 -0.1707 -0.1001 -0.6288
11870S        S18674   9.615   8.573  32.922  0.2680  0.0994 -0.0348
11871S        S18675   2.154   4.391  19.020 -0.5239 -0.1469  0.2908
11872S        S18676   4.966  10.494  30.769 -0.0841  0.4312 -0.1733
11873S        S18677   0.444   0.815  14.997 -0.7708  0.8351 -0.0607
11874S        S18678   4.337   5.063  24.327 -0.2353  0.2566 -0.3015
11875S        S18679   7.827   9.267  24.275  0.0541  0.3796 -0.1445
11876S        S18680   2.632   8.906  24.341  0.0075 -0.5575 -0.1007
11877S        S18681   5.731   0.285  21.808 -0.0324  0.0652 -0.1003
11878S        S18682   0.344  10.529  26.534  0.1683  0.2338 -0.2759
11879S        S18683   5.904   1.088  14.850  0.1745 -0.1311  0.1415
11880S        S18684  10.850  12.137  24.894  0.1624  0.3765  0.3374
11881S        S18685   1.482   1.584  11.993  0.1640 -0.4087 -0.3563
11882S        S18686   3.152   5.010  21.692 -0.7224 -0.0820 -0.1562
11883S        S18687  10.260   1.408  26.262 -0.5562 -0.1687  0.4478
11884S        S18688   5.865   2.340  23.991 -0.1928  0.0264  0.4813
11885S        S18689   3.595  11.364  24.235 -0.1596 -0.1930 -0.0830
11886S        S18690   8.256   6.090  22.626  0.0264  0.2449  0.1019
11887S        S18691   6.430   3.285  21.659  0.6117  0.5467  0.5308
11888S        S18692   2.623   1.486  27.299 -0.0295 -0.3617  0.1038
11889S        S18693   0.164   1.448  31.449  1.1263  0.3447  0.5832
11890S        S18694   8.164   7.244  27.469 -0.2141  0.0625 -0.3933
11891S        S18695   4.247  12.253  11.854  0.2722 -0.0517 -0.1040
11892S        S18696  12.038   2.929  14.646  0.1057 -0.2639 -0.4849
11893S        S18697  11.021   4.655  12.305 -0.2543  0.3011 -0.0670
11894S        S18698  11.989   6.825  20.099  0.2181 -0.3477  0.6591
11895S        S18699   8.274   0.868  14.164 -0.4956  0.4799 -0.1332
11896S        S18700   1.753   1.663  21.873 -0.2436  0.0615 -0.2702
11897S        S18701   1.833  10.982  17.700 -0.1452 -0.0035 -0.0518
11898S        S18702   5.632   5.745  15.740  0.4843  0.0856  0.1764
11899S        S18703   3.618   2.234  16.662  0.1719  0.1858 -0.5542
11900S        S18704   0.003   5.837  17.467 -0.0884  0.4970 -0.3455
11901S        S18705   7.937  11.561  15.896 -0.3988  0.2112  0.3824
11902S        S18706   1.753  11.226  28.044  0.6119 -0.5845  0.4304
11903S        S18707   8.179   5.899  19.673  0.1419  0.1176 -0.3385
11904S        S18708   7.446   7.334  14.248  0.2163 -0.2279  0.5386
11905S        S18709   1.081   4.082  35.641 -0.0321  0.1196  0.5913
11906S        S18710  10.815   5.842  11.393  0.0930  0.0438  0.0848
11907S        S18711   2.357   3.208  27.057  0.2781 -0.2340  0.1198
11908S        S18712   0.494   5.674  16.791 -0.1406  0.1644  0.0657
11909S        S18713   6.819   7.820  24.202  0.3717  0.2380 -0.4570
11910S        S18714   6.084  10.059  27.622 -0.5996  0.4117 -0.0347
11911S        S18715  10.826   1.711  17.960  0.3893 -0.0875 -0.2562
11912S        S18716  11.840   1.010  13.662  0.0585 -0.0811  0.0779
11913S        S18717   9.474   3.202  30.608 -0.1566  0.0474 -0.3678
11914S        S18718   9.528  12.140  19.226  0.0983 -0.1998  0.0391
11915S        S18719   7.812   8.568  27.757  0.7351 -0.0875  0.8262
11916S        S18720  10.533   6.639  25.414  0.1424 -0.7567  0.3793
11917S        S18721   5.536   3.093  19.242  0.2975  0.6395 -0.0058
11918S        S18722  11.501   0.849  14.611 -0.1748  0.0954  0.4676
11919S        S18723   9.627   7.265  19.428  0.3440 -0.1674 -0.4469
11920S        S18724   5.397   8.240  23.911 -0.1151 -0.3507  0.3393
11921S        S18725   4.720   5.291  29.448  0.0069 -0.2981 -0.1603
11922S        S18726   4.768   7.275  24.567 -0.1511 -0.3437  0.1021
11923S        S18727   0.343   7.907  16.852  0.3410 -0.3577  0.0425
11924S        S18728   4.819   8.098  18.438  0.0033  0.1260  0.0556
11925S        S18729   5.417   1.961  22.837  0.0809 -0.1666 -0.0405
11926S        S18730   0.375   3.048  24.247  0.3031 -0.6506 -0.6335
11927S        S18731   2.257   1.466  28.635  0.3699  0.5965 -0.3448
11928S        S18732  12.284  11.883  23.697 -0.7331  0.2619  0.4237
11929S        S18733   1.013   9.884  18.021  0.3542  0.2400  0.2616
11930S        S18734  11.709   7.829  11.022 -0.1911 -0.0631  0.2591
11931S        S18735  11.784   8.870  13.159 -0.1755  0.1214 -0.0604
11932S        S18736   8.385   0.997  19.768 -0.7171 -0.5527 -0.0292
11933S        S18737   2.724   5.436  17.008 -0.1327 -0.3136  0.2521
11934S        S18738   7.679   2.393   8.864 -0.0140  0.1524  0.3944
11935S        S18739   2.526   9.860  16.271 -0.4799  0.1475 -0.0861
11936S        S18740   0.362   3.450  20.798  0.2132 -0.4968 -0.3621
11937S        S18741   3.272   2.403  20.426 -0.1186 -0.0543  0.1200
11938S        S18742   7.716  11.055  13.759 -0.1543  0.2599 -0.1932
11939S        S18743   9.962   0.700  24.606 -0.2049  0.1824 -0.2440
11940S        S18744   1.642   4.717  25.787  0.3798 -0.2120 -0.0911
11941S        S18745  11.526  10.089  25.081 -0.1815  0.0447 -0.1675
11942S        S18746  11.208   1.034  13.687 -0.0889 -0.0593  0.1803
11943S        S18747   6.543   3.205  28.530 -0.6294 -0.8238 -0.0611
11944S        S18748   9.958   6.847  21.292 -0.0403  0.3980  0.3844
11945S        S18749   6.636   0.719  29.356  0.9514  0.0778  0.0447
11946S        S18750  10.961   4.498  31.179 -0.0331  0.7184 -0.0355
11947S        S18751   7.345   7.039  13.731  0.1439  0.1693 -0.0583
11948S        S18752   3.753   6.844  20.474  0.6223  0.2667 -0.3838
11949S        S18753  12.234   4.611  28.544 -0.5066  0.3502  0.0258
11950S        S18754   5.874  12.346  20.037 -0.0779 -0.2133 -0.6068
11951S        S18755   2.004   2.513  24.134  0.1568 -0.0417 -0.1107
11952S        S18756   3.278   2.424  23.334  0.3131  0.0968 -0.3960
11953S        S18757   6.056  11.528  18.244 -0.3582 -0.1317 -0.2949
11954S        S18758   9.171   3.471  20.174  0.7361  0.2337  0.3447
11955S        S18759   7.054  12.176  29.397  0.5747  0.2233 -0.0600
11956S        S18760   7.127   6.983  25.977 -0.2515 -0.2118 -0.0363
11957S        S18761   7.223   0.180  22.939 -0.0689 -0.6428  0.5513
11958S        S18762  11.418   1.588  27.500 -0.2331  0.1034 -0.0438
11959S        S18763   0.315   7.299  22.072 -0.1243  0.4146  0.1348
11960S        S18764   9.925   5.550  21.499  0.4407 -0.2900 -0.0275
11961S        S18765  12.080  11.091  21.634 -0.2290 -0.6060 -0.0850
11962S        S18766   8.258  10.088  20.952  0.0015  0.2733 -0.3997
11963S        S18767   1.978  11.141  27.559  0.5883  0.1118 -0.4001
11964S        S18768   4.438   2.737  13.888  0.0034 -0.0578 -0.1867
11965S        S18769   8.755   4.160  30.684 -0.8849  0.5933 -0.5827
11966S        S18770   5.003   2.394  19.478  0.0077 -0.0190 -0.3250
11967S        S18771   3.259   2.263  24.527 -0.4779 -0.1657 -0.2586
11968S        S18772   3.482   7.559  11.831  0.5808  0.3237  0.2238
11969S        S18773   2.501   4.128  26.825 -0.4448  0.7119 -0.4147
11970S        S18774   7.866   5.464  12.424 -0.2736 -0.1790 -0.4238
11971S        S18775   7.491   1.317  26.749 -0.3555  0.6319  0.5394
11972S        S18776   6.146   1.296  11.995 -0.3196 -0.3240 -0.4003
11973S        S18777   5.852   1.680  30.762 -0.3907 -0.1058 -0.1219
11974S        S18778   4.836   2.263  26.053 -0.6930 -0.4419 -0.4183
11975S        S18779   4.059   8.095  30.000 -0.1617 -0.1821  0.2691
11976S        S18780  11.359   9.068  20.777 -0.1338 -0.3172 -0.0853
11977S        S18781   1.651   3.882  12.950  0.1077  0.5725  0.0207
11978S        S18782  10.119   1.225  29.710  0.4527 -0.3837 -1.0362
11979S        S18783   9.951  11.690  25.428 -0.1144  0.1695  0.0010
11980S        S18784   2.963  12.059  26.887  0.0883 -0.4323  0.2256
11981S        S18785  10.372   6.326  24.419  0.0954  0.1373  0.3354
11982S        S18786  12.358   0.401  20.067 -0.0318 -0.0117  0.2453
11983S        S18787   2.864  12.153  18.720 -0.3584 -0.0382  0.0565
11984S        S18788   2.280   1.266  24.297 -0.1725  0.0501  0.1360
11985S        S18789   8.953   9.900  27.511 -0.5146 -0.1791 -0.4132
11986S        S18790   8.200   1.561  16.643  0.2893 -0.0126  0.0177
11987S        S18791  11.457   9.812  25.997  0.2681 -0.5563  0.2955
11988S        S18792   7.676  12.275  28.612 -0.1273 -0.5451  0.3523
11989S        S18793   8.122  10.527  14.260 -0.0176 -0.0697 -0.2432
11990S        S18794   8.650   0.886  15.043 -0.2239  0.3175 -0.0234
11991S        S18795   1.893   8.662  23.580  0.5339 -0.4685 -0.2933
11992S        S18796   1.348  12.019  25.215 -0.4018 -0.5832  0.0685
11993S        S18797   7.015   1.129  12.958  0.4104 -0.3994 -0.2977
11994S        S18798   6.862  10.139  21.413  0.1948 -0.2157 -0.0325
11995S        S18799   5.792   8.377  26.122 -0.2996  0.3223 -0.0921
11996S        S18800   9.088  11.115  23.124 -0.1527  0.0439 -0.1718
11997S        S18801   5.130   1.071  13.659 -0.0896  0.2030 -0.1661
11998S        S18802   4.466   8.026  31.384 -0.2920  0.3437  0.4443
11999S        S18803   9.271  11.877  44.345  0.3741 -0.0401 -0.0079
12000S        S18804  11.447   6.645  11.506 -0.0026 -0.9378  0.0603
12001S        S18805   8.359   8.513  26.157  0.1684  0.3564  0.1813
12002S        S18806   1.141   7.667  12.498 -0.0067  0.1548 -0.1526
12003S        S18807   8.984   3.947  24.214  0.0577  0.1751  0.1818
12004S        S18808   9.826   4.834  30.248 -0.2940  0.3875 -0.3841
12005S        S18809   5.216   8.812  19.935  0.1759 -0.1948 -0.5952
12006S        S18810   0.981   5.953  14.416  0.0112 -0.1042 -0.2716
12007S        S18811   8.489   9.530  28.422  0.3251 -0.0308 -0.0486
12008S        S18812   9.656   5.615  17.755 -0.1012  0.0294  0.3553
12009S        S18813   4.325   2.139  27.276 -0.2362 -0.2216 -0.5937
12010S        S18814   2.619   6.452  17.549 -0.2101 -0.1182  0.0089
12011S        S18815   2.708  11.821  18.259 -0.5661  0.0782 -0.0298
12012S        S18816   6.115   7.848  25.298 -0.1751 -0.1849 -0.2292
12013S        S18817   7.811   9.379  16.702 -0.2116 -0.2632  0.1976
12014S        S18818   4.477   4.454  31.209  0.0343  0.9789 -0.3198
12015S        S18819   3.897  11.249  11.977 -0.1751  0.5703 -0.0806
12016S        S18820  10.086   5.635  12.934 -0.0842  0.5420 -0.2176
12017S        S18821   4.219  11.983  11.431  0.4342 -0.0615 -0.1577
12018S        S18822   6.828   9.290  26.635 -0.3924  0.3202  0.3135
12019S        S18823  10.418  11.148  18.947  0.0695  0.1065  0.0761
12020S        S18824   4.887   4.100  21.294 -0.3771  0.2246  0.2843
12021S        S18825   1.444   5.814  27.219 -0.3104  0.3103  0.1788
12022S        S18826   3.150   6.899  27.894  0.1664 -0.1345 -0.0768
12023S        S18827   6.523   8.152  20.754 -0.4507 -0.3375  0.3854
12024S        S18828   5.262   3.404  17.403  0.0680  0.1194  0.0876
12025S        S18829   3.986  12.105  19.547 -0.2669 -0.4020 -0.2844
12026S        S18830   6.800   7.230  16.874 -0.2993  0.0849 -0.7192
12027S        S18831  10.428   9.294  23.273 -0.3984  0.6210 -0.2226
12028S        S18832   4.706   6.496  19.060 -0.2252  0.1582 -0.2660
12029S        S18833   4.279   5.179  15.203 -0.0671  0.3352 -0.1024
12030S        S18834  12.000   5.724  14.539  0.3410  0.0452  0.2282
12031S        S18835   8.088   1.813  12.470 -0.0535  0.0792  0.0928
12032S        S18836   6.124  12.220  28.127 -0.1910  0.3554 -0.4547
12033S        S18837   4.781   0.399  21.913  0.5401  0.0599 -0.1141
12034S        S18838   5.009  10.969  25.602 -0.0799 -0.6898 -0.6595
12035S        S18839  11.082  10.559  27.211 -0.3481  0.3416 -0.4759
12036S        S18840   5.703   8.534  21.050 -0.0110 -0.1693 -0.3051
12037S        S18841   3.071   0.583  18.899  0.3736 -0.2316  0.0889
12038S        S18842   7.942   7.314  13.435 -0.0969 -0.0200 -0.0994
12039S        S18843   2.847   3.477  18.018 -0.3275  0.2895 -0.1513
12040S        S18844   3.937   6.148  23.070  0.6430 -0.3881 -0.4224
12041S        S18845   4.273   7.971  19.072  0.2034 -0.1254 -0.5875
12042S        S18846   8.641   5.406  25.572 -0.6796  0.2377  0.4230
12043S        S18847   4.433   8.585  12.637 -0.1836  0.1348 -0.4983
12044S        S18848   8.184   7.204  17.703 -0.1806 -0.4940  0.1866
12045S        S18849   1.536  11.616  12.464 -0.1527 -0.0291  0.1278
12046S        S18850   5.803  12.236  28.607 -0.5698  0.1795 -0.0702
12047S        S18851   2.998   9.274  19.614  0.0805  0.1682  0.4167
12048S        S18852   8.316   3.625  22.974 -0.5393  0.1880  0.1869
12049S        S18853   3.445   2.644  13.292 -0.0929  0.0065 -0.6088
12050S        S18854   1.184   0.684  27.839 -0.2561  0.2146 -0.0297
12051S        S18855  10.073   2.812  12.867 -0.4369  0.4270 -0.2305
12052S        S18856   5.383   2.225  12.505 -0.6092 -0.4978  0.1377
12053S        S18857   7.441   6.695  16.144 -0.5262 -0.1432  0.1058
12054S        S18858   9.027   2.113   5.440 -0.0170 -0.2490  0.2221
12055S        S18859   2.411   0.121  13.677  0.1591  0.1886 -0.1063
12056S        S18860   2.025   1.993  15.553 -0.2487  0.2351  0.1901
12057S        S18861   9.098  11.017  14.549 -0.0799  0.2193  0.1931
12058S        S18862   5.968   9.083  19.969 -0.0931 -0.4873  0.0883
12059S        S18863   4.171   2.139  29.021  0.3342  0.0296  0.0561
12060S        S18864   9.475   2.042  31.713  0.1834  0.2546  0.5457
12061S        S18865  10.444   3.979  40.764  0.0120 -0.1671  0.0839
12062S        S18866   4.148   1.588  11.120  0.3569  0.0214 -0.2889
12063S        S18867   5.931   4.414  29.917  0.2799  0.2202  0.1676
12064S        S18868  10.518   9.319  16.165  0.1925 -0.2917  0.4981
12065S        S18869   9.984   3.841   8.695 -0.2330  0.1511  0.0425
12066S        S18870   2.788   8.601  22.040 -0.3204  0.1287  0.5506
12067S        S18871   8.188   3.993  20.456  0.0801  0.0232  0.2551
12068S        S18872   1.700   6.079  25.860 -0.5219  0.1841 -0.0106
12069S        S18873   9.643   2.182  18.756  0.0667  0.0859  0.5222
12070S        S18874   8.615  11.917  26.225  0.2432 -0.3549  0.0336
12071S        S18875   4.964   0.993  14.790  0.4791  0.1020  0.3515
12072S        S18876   8.546   1.314  29.475  0.7447 -0.0162 -0.1148
12073S        S18877   7.373   7.510  24.662 -0.3612  0.1372 -0.1145
12074S        S18878   7.518   0.802  20.692  0.1591  0.3506 -0.3502
12075S        S18879   0.030  11.919  28.685  0.5653 -0.4756 -0.6269
12076S        S18880   6.342   3.972  14.984 -0.3399 -0.0761 -0.0842
12077S        S18881   1.649   8.086  22.925 -0.1138 -0.1375 -0.0763
12078S        S18882  11.068   6.381  11.804 -0.4302 -0.1451  0.2002
12079S        S18883   0.450   0.907  26.538  0.1962  0.3772 -0.4784
12080S        S18884   8.734   4.696  12.820 -0.3964 -0.1497 -0.1832
12081S        S18885   5.199  10.537  27.818 -0.7908 -0.2642 -0.4443
12082S        S18886   9.333   2.195  14.686  0.4298  0.1212  0.0991
12083S        S18887   6.084   1.372  23.165  0.0802  0.3779  0.2217
12084S        S18888  11.256   1.938  49.135 -0.0243  0.3454  0.1658
12085S        S18889   7.698   4.062  24.162 -0.0897  0.1983  0.5225
12086S        S18890   9.036   6.378  17.769  0.0679 -0.0892  0.1601
12087S        S18891   9.454   8.518  17.616  0.0357  0.0460 -0.4321
12088S        S18892   9.802   9.264  18.490 -0.3492  0.5604 -0.6504
12089S        S18893   2.775   2.575  28.454 -0.2170  0.2671  0.3664
12090S        S18894  10.535   1.602   3.661 -0.0578  0.1129  0.0966
12091S        S18895   5.334   3.240  21.497  0.1751 -0.2124 -0.1506
12092S        S18896   6.587   0.622  12.273  0.1755 -0.1791 -0.6985
12093S        S18897  10.369   8.138  13.982 -0.0370 -0.0108 -0.2282
12094S        S18898   3.347   6.369  24.731 -0.1945  0.0652  0.1329
12095S        S18899   5.146  11.515  15.556  0.3191 -0.6561 -0.2027
12096S        S18900   8.651   1.026  11.880  0.0188  0.0866  0.2096
12097S        S18901  11.544   4.367  18.310 -0.4332 -0.0698  0.3520
12098S        S18902   3.186   7.290   9.985  0.4042  0.4498 -0.2642
12099S        S18903  11.863   2.243  13.072  0.3986  0.4443  0.4688
12100S        S18904   1.543   8.790  14.697 -0.5824 -0.2908 -0.5385
12101S        S18905   9.673   2.435  12.597  0.3260  0.3682 -0.2122
12102S        S18906   9.244   0.126  22.571 -0.1684  0.0686 -0.6782
12103S        S18907   9.512   4.785  20.226  0.0279 -0.3956  0.0365
12104S        S18908   8.056   6.839  24.932  0.0204  0.2102  0.1949
12105S        S18909  12.281   0.940  30.174  0.2598  0.2997 -0.0442
12106S        S18910   0.607   4.827  12.528  0.5618 -0.1920  0.0636
12107S        S18911   0.675  11.384  18.489 -0.0635 -0.0942 -0.3113
12108S        S18912  11.461   0.888  18.878 -0.2630 -0.2965  0.3314
12109S        S18913   6.465   3.844  16.183  0.4352  0.4784  0.3011
12110S        S18914   1.641  11.552  18.442 -0.0100  0.0370 -0.1112
12111S        S18915   7.178   8.989  13.717 -0.4648 -0.1644 -0.3002
12112S        S18916   4.622  10.220  12.317 -0.1143  0.4453  0.3822
12113S        S18917   9.479   3.552  18.962  0.2462  0.4754 -0.1349
12114S        S18918   9.221   6.050  28.233  0.0213 -0.7695 -0.2199
12115S        S18919   4.489   4.912  24.824 -0.1221  0.0448  0.1294
12116S        S18920   6.539   9.186  19.143 -0.1473  0.3192  0.3735
12117S        S18921   1.080   9.043  14.723  0.4581 -0.0969  0.2197
12118S        S18922   3.985   2.848  14.048  0.4153 -0.2124  0.0417
12119S        S18923   7.613   2.171   9.387  0.4385  0.5460  0.2719
12120S        S18924   0.575   2.422  32.163  0.0141  0.1290  0.0896
12121S        S18925  11.510  11.816  20.043  0.1642  0.3914  0.0750
12122S        S18926   3.445   8.961  24.731  0.3081  0.0727  0.6100
12123S        S18927   7.132   1.703  25.434  0.5468  0.6447  0.0896
12124S        S18928   0.367   8.383   7.850 -0.0773 -0.0312  0.1106
12125S        S18929   2.266   5.907  16.368 -0.0203  0.0553 -0.0191
12126S        S18930  10.201   2.495  20.257 -0.0527  0.4236  0.4139
12127S        S18931  10.071   3.839  30.883 -0.1112  0.0432  0.1198
12128S        S18932   4.057   3.418  24.185 -0.4057 -0.2814  0.1321
12129S        S18933   3.156  10.853  30.733 -0.1106 -0.2144  0.4839
12130S        S18934   5.115   0.825  24.673 -0.7274  0.1089 -0.0015
12131S        S18935   4.450   4.223  14.523  0.0495  0.1352  0.2318
12132S        S18936   7.347   2.519  45.046 -0.3725  0.1099  0.3962
12133S        S18937  11.133  11.088  22.842 -0.0748  0.0701  0.0683
12134S        S18938   3.574  11.283  30.685  0.2528  0.7480 -0.1941
12135S        S18939  10.234   2.029  28.215  0.0473  0.0388 -0.3549
12136S        S18940  10.762   9.951  14.941 -0.2151  0.1405  0.0330
12137S        S18941   2.016  11.013  22.029  0.5768 -0.0815 -0.0203
12138S        S18942   3.331   7.101  17.677  0.1357  0.3473 -0.1436
12139S        S18943  10.985   6.680  18.036  0.1870  0.3204  0.2182
12140S        S18944   3.042   4.293  23.694  0.2077  0.0918 -0.4065
12141S        S18945   8.278   4.361  20.025 -0.2631  0.0739 -0.1577
12142S        S18946   7.799   8.595  20.068 -0.5293 -0.0877  0.4662
12143S        S18947   7.492   3.620  16.490  0.3321  0.0041 -0.0620
12144S        S18948   7.853   9.505  30.725  0.2195 -0.0154 -0.3483
12145S        S18949   1.726   4.869  15.506  0.1034 -0.4498  0.0180
12146S        S18950  10.097   0.685  15.128 -0.4403 -0.1826 -0.2062
12147S        S18951   1.452   3.479  24.282  0.0911 -0.1237  0.1346
12148S        S18952   5.416  12.357  12.930 -0.1277  0.5308  0.0646
12149S        S18953   6.102  12.310  27.003  0.3222  0.2388  0.2614
12150S        S18954   2.710   0.062  25.338 -0.0269  0.0061 -0.3385
12151S        S18955   9.232   5.421  17.982 -0.0173 -0.5291  0.1999
12152S        S18956   0.064   9.457  28.613 -0.6587  0.2254 -0.4692
12153S        S18957   1.185  10.232  25.802 -0.2564  0.4684  0.2991
12154S        S18958   8.069   0.099  12.397  0.2214 -0.3179 -0.3754
12155S        S18959   4.737   9.371  24.233  0.1664 -0.0829 -0.2584
12156S        S18960   7.507   5.314  16.515 -0.2220  0.1366  0.0135
12157S        S18961   1.143  11.376  17.067  0.0293 -0.1900  0.1014
12158S        S18962   2.415  11.569  29.437  0.0772  0.9071  0.3470
12159S        S18963   3.465   3.446  16.178 -0.2373  0.0544 -0.0947
12160S        S18964  10.725   9.341  29.146 -0.3191 -0.4364 -0.0364
12161S        S18965   0.507   7.321  20.891 -0.0435 -0.2507  0.1107
12162S        S18966   0.700   1.770  19.695 -0.0384  0.1283  0.2063
12163S        S18967   6.339   3.207  13.820  0.5155  0.3714 -0.3158
12164S        S18968   2.615  10.087  27.569 -0.0370  0.0803  0.1210
12165S        S18969  10.867  11.992  23.752 -0.1178  0.0116 -0.0275
12166S        S18970   5.471   3.890  25.339  0.4359 -0.0889  0.1329
12167S        S18971   9.025   3.686  12.765 -0.0553 -0.1969  0.0986
12168S        S18972   2.472  11.493  14.256  0.4679 -0.2049 -0.6074
12169S        S18973   5.779  12.130  24.854 -0.5218 -0.1291  1.0983
12170S        S18974  11.318   3.013  31.908  0.7168  0.4263  0.6276
12171S        S18975   0.613   4.976  15.396  0.2233  0.1715  0.1945
12172S        S18976  10.589   7.673  17.282 -0.1318 -0.2817 -0.0928
12173S        S18977  11.830   7.886  19.964 -0.4095  0.3298  0.4009
12174S        S18978  11.127   1.789  16.888  0.4370 -0.3098 -0.2185
12175S        S18979   8.027   9.648  14.764  0.3974 -0.0684  0.0322
12176S        S18980   5.906  10.425  11.912 -0.1044  0.0881  0.3875
12177S        S18981  10.365   3.033  20.225  0.5032 -0.0956 -0.2119
12178S        S18982   7.952   3.541  28.034  0.5169  0.1480  0.2625
12179S        S18983   3.305   0.855  13.665 -0.4635  0.2635  0.1196
12180S        S18984   3.000  10.499  19.940  0.0780 -0.0351  0.0257
12181S        S18985   6.782  11.508  11.768 -0.0622  0.1053  0.4833
12182S        S18986   3.387   0.992  22.791 -0.2209  0.6401  0.3212
12183S        S18987  11.462   3.396  17.176 -0.2427  0.1735  0.0404
12184S        S18988  10.097   5.526  24.845 -0.2940  0.3041 -0.1612
12185S        S18989   0.895   4.234  21.435 -0.0129  0.1691 -0.2140
12186S        S18990   6.948   0.672  29.920  0.3599 -0.2799 -0.0425
12187S        S18991   0.991   6.887  10.963 -0.0293  0.5898 -0.3083
12188S        S18992  12.042  11.161  15.865 -0.0745 -0.0753  0.4222
12189S        S18993   1.562   7.249  25.142 -0.3602 -0.3033  0.3810
12190S        S18994   9.678   4.418  24.012 -0.2208  0.2268 -0.2541
12191S        S18995   6.510   8.547  27.823 -0.1564 -0.1261 -0.2906
12192S        S18996   6.631   5.171  19.742  0.3603  0.3723  0.1991
12193S        S18997   8.444  11.667  27.602 -0.2367 -0.0282 -0.3925
12194S        S18998   5.691   0.766  13.338  0.1685 -0.2093  0.1311
12195S        S18999  11.619  10.945  15.678 -0.1215  0.4488  0.0249
12196S        S19000  10.590   5.863  22.028  0.0053 -0.2339  0.0302
12197S        S19001   1.832   8.212  19.197  0.3288 -0.0744  0.1119
12198S        S19002   5.944  10.166  11.393 -0.4478 -0.6171  0.2894
12199S        S19003   9.405   9.809  20.832  0.0691 -0.2041  0.0671
12200S        S19004   9.362  11.272  20.049  0.0913  0.2815 -0.0539
12201S        S19005   6.090   6.290  16.465 -0.2942  0.0557  0.3893
12202S        S19006   6.880   0.173  23.298 -0.0875  0.6028 -0.0670
12203S        S19007  10.106   9.533  26.798  0.5959  0.4014  0.5799
12204S        S19008   6.758   4.806  11.452 -0.1492  0.0517 -0.0303
12205S        S19009   5.385  10.027  16.911  0.4104  0.3838 -0.1483
12206S        S19010   6.069   9.401  29.600 -0.6087  0.1050  0.1571
12207S        S19011   7.162   7.055  22.691 -0.1358  0.3491  0.1640
12208S        S19012  11.227   1.100  48.990  0.3109 -0.6108 -0.0343
12209S        S19013   5.710  11.335  25.125 -0.0321 -0.0121  0.7026
12210S        S19014   3.673   2.333  17.248 -0.0545  0.2073  0.2307
12211S        S19015   3.369   7.373  14.516  0.6754  0.7058  0.3304
12212S        S19016   5.935   7.427  21.180  0.1466 -0.1433 -0.1510
12213S        S19017  10.407   7.056  15.185  0.0973  0.2190  0.1764
12214S        S19018  10.670   8.048  24.666 -0.0367 -0.0133 -0.2913
12215S        S19019   8.640   7.406  14.624 -0.0474 -0.3018  0.2022
12216S        S19020   9.000   7.066  17.354 -0.0242  0.5106  0.2457
12217S        S19021   8.405  10.147  16.033  0.2146 -0.0625  0.0974
12218S        S19022   7.551   4.696  27.979  0.1978 -0.0029  0.0863
12219S        S19023  10.120   9.806  31.065  0.9078  0.2181 -0.1293
12220S        S19024   6.155  12.290  16.059  0.2305 -0.1865  0.2847
12221S        S19025  11.887   2.556  24.503 -0.5275  0.5807  0.0215
12222S        S19026  11.905   8.878  11.351  0.9470 -0.0260 -0.5065
12223S        S19027   6.907   1.621  14.022 -0.0237 -0.5055 -0.0545
12224S        S19028   9.989   7.148  31.817 -0.4242 -0.4514  0.1759
12225S        S19029  10.432   3.096  15.583 -0.1450 -0.4979 -0.2676
12226S        S19030   5.691  10.716  19.687 -0.0902 -0.1841 -0.3633
12227S        S19031   9.457   7.900  14.915 -0.1757  0.2326  0.0689
12228S        S19032   0.232   2.405  12.090 -0.5681 -0.1229  0.3214
12229S        S19033   8.094   5.744  28.882  0.2030 -0.1002  0.5369
12230S        S19034   9.259   3.360  13.205 -0.1244 -0.2491 -0.6238
12231S        S19035   7.390   0.806  24.832  0.5104 -0.6202  0.0046
12232S        S19036   9.826   6.538  30.982 -0.0973 -0.0932  0.2887
12233S        S19037  10.042   0.068  24.926  0.3159  0.0437  0.1307
12234S        S19038  11.968   3.369  24.769  0.1617 -0.1802  0.0988
12235S        S19039   3.716  12.013  31.675 -1.1030 -0.3067 -0.1854
12236S        S19040   4.486  10.605  20.693 -0.1644 -0.0870 -0.0980
12237S        S19041   2.906   0.590  38.881 -0.3393  0.5247  0.3598
12238S        S19042   2.344   1.797  21.991 -0.3072  0.2175  0.4102
12239S        S19043   4.251   4.994  18.401  0.1328 -0.1719 -0.0821
12240S        S19044   0.920   3.103  27.314 -0.6088 -0.5828  0.7060
12241S        S19045  10.032   3.718  26.120  0.1540 -0.2942  0.2298
12242S        S19046   1.575   6.363  27.286  0.0508 -0.3989  0.0075
12243S        S19047   4.803   0.005  27.776  0.0977 -0.3646  0.0263
12244S        S19048   1.064   6.201  20.157 -0.0813  0.0106  0.1549
12245S        S19049   3.678  10.875  17.943 -0.0395 -0.4504  0.5023
12246S        S19050   7.412  12.136  17.907 -0.0266  0.5564  0.4464
12247S        S19051  12.266   4.560  27.094 -0.1546 -0.5365  0.1677
12248S        S19052   5.744   9.353  16.144 -0.0613 -0.1265 -0.1013
12249S        S19053   3.149   0.175  15.272  0.1569  0.1183  0.3063
12250S        S19054   7.615   0.208  20.038  0.0698  0.6151  0.3789
12251S        S19055   5.827   1.487  29.786  0.1507  0.1201 -0.0016
12252S        S19056   4.189   7.359  14.288  0.6361 -0.0818 -0.5184
12253S        S19057  11.779   7.820  14.472  0.2457 -0.2292  0.2327
12254S        S19058  10.849  10.282  15.959  0.3782  0.3670  0.0030
12255S        S19059  11.188   0.866  22.697  0.0017  0.3247 -0.5993
12256S        S19060   7.951   6.307  14.458 -0.1737 -0.1317 -0.1122
12257S        S19061  11.485   1.652  28.009  0.2622  0.2185 -0.3520
12258S        S19062   7.080  11.488  21.907 -0.6398  0.1224 -0.1774
12259S        S19063   4.324  12.305  12.629 -0.3835 -0.5028  0.1378
12260S        S19064   6.247   1.714  29.378 -0.6393 -0.3417 -0.2927
12261S        S19065   4.905  11.736  16.387 -0.0182  0.4229 -0.2451
12262S        S19066   5.889   6.365  14.524  0.2154 -0.2355  0.2562
12263S        S19067   6.833   0.517  22.637 -0.4371 -0.0359  0.1052
12264S        S19068   1.538   9.735  12.088 -0.6477 -0.2809 -0.2835
12265S        S19069   0.482   7.817  13.858 -0.2326  0.2016  0.1649
12266S        S19070   8.363   5.420  12.456  0.3405  0.2880 -0.4155
12267S        S19071  10.281   6.446  10.937  0.2007 -0.5885  0.2585
12268S        S19072   4.738   2.143  25.534  0.2221 -0.0330 -0.4346
12269S        S19073   2.696   1.382  28.352  0.2959 -0.6065 -0.0487
12270S        S19074  11.900   3.388  22.834  0.0475 -0.2241  0.1924
12271S        S19075   3.568   4.093  14.835 -0.0088 -0.2614  0.0193
12272S        S19076   1.776   1.292  17.985 -0.4857  0.1586 -0.3701
12273S        S19077   4.044   9.777  28.262 -0.7634 -0.2146 -0.2015
12274S        S19078  10.912  10.752  16.264 -0.4333  0.3376 -0.2634
12275S        S19079   8.502   9.803  19.605 -0.3895  0.1270  0.2478
12276S        S19080   0.932   3.623  31.054  0.2381 -0.3867  0.0591
12277S        S19081   5.081   2.297  21.607 -0.5188  0.0237 -0.5459
12278S        S19082   2.952  11.841  23.608  0.1244 -0.0407  0.3188
12279S        S19083  10.609   5.443  13.803  0.6207 -0.0967 -0.1699
12280S        S19084  11.210   3.357  28.069 -0.2810  0.3041  0.2567
12281S        S19085   8.871   1.974  27.222 -0.7191  0.5421 -0.9523
12282S        S19086   7.593   3.807  13.399 -0.3508 -0.2094 -0.0820
12283S        S19087   3.400   7.936  13.290 -0.2508 -0.1114 -0.3160
12284S        S19088   3.103   2.794  21.999  0.0667  0.1914  0.4098
12285S        S19089   2.733   7.662  24.106 -0.3321 -0.2212 -0.3474
12286S        S19090   0.430   0.492  20.556 -0.3999  0.1313 -0.1860
12287S        S19091   7.240  11.778  26.837  0.4491  0.1866 -0.4284
12288S        S19092   3.032   3.512  17.563  0.0037 -0.1945 -0.2747
12289S        S19093   6.445  11.865  20.785  0.0468  0.4299  0.0705
12290S        S19094   4.952   7.458  15.526 -0.5062  0.1039 -0.2821
12291S        S19095   6.333   5.860  27.509 -0.0617 -0.5116 -0.0024
12292S        S19096  12.265   4.734  35.986  0.5364 -0.9182  0.0016
12293S        S19097   5.953   0.464  24.429  0.3326  0.0688  0.2003
12294S        S19098   9.884  10.502  12.936  0.1159 -0.3927  0.1113
12295S        S19099   1.157   3.801  19.020 -0.1349  0.4661 -0.1145
12296S        S19100   9.709   9.449  14.938  0.0870 -0.3435  0.0793
12297S        S19101   2.241  12.318  18.508 -1.0074  0.4088 -0.1191
12298S        S19102   0.661   3.126  30.323  0.2947  0.0025  0.5199
12299S        S19103  11.024  10.354  24.820 -0.5093  0.0591  0.2153
12300S        S19104  10.209   4.150  17.339  0.1246 -0.1184 -0.3430
12301S        S19105   8.558   6.324  25.171 -0.0031  0.0717  0.3128
12302S        S19106   5.929   9.484  27.727 -0.1776  0.3434 -0.0631
12303S        S19107  11.546   2.531  27.812  0.7733 -0.4720 -0.1764
12304S        S19108  12.253   8.377  29.721 -0.2404  0.0012 -0.0603
12305S        S19109   8.029   0.486  13.834 -0.0264  0.2057 -0.3428
12306S        S19110   4.474   1.791  13.548  0.0054 -0.2958 -0.2571
12307S        S19111   6.888   6.031  25.832 -0.1282  0.2696 -0.3505
12308S        S19112   0.674   6.963  11.773  0.1793  0.2972  0.0912
12309S        S19113   8.829   1.910  15.899  0.1710 -0.1957 -0.0622
12310S        S19114   1.197   7.048  24.261 -0.3678 -0.5966  0.4610
12311S        S19115   8.472  11.617  20.898 -0.0278  0.1549  0.2780
12312S        S19116   4.865   4.727  15.924 -0.1195  0.1766 -0.0720
12313S        S19117   3.328   7.666  18.251 -0.2873 -0.0061  0.2707
12314S        S19118   9.819   7.752  17.349 -0.1999 -0.6787  0.3377
12315S        S19119   1.142  11.346   0.429 -0.2081  0.1888 -0.0923
12316S        S19120  11.024   1.813  15.035 -0.0110  0.4593 -0.2054
12317S        S19121   0.656   1.756  13.677 -0.2321  0.0063 -0.1493
12318S        S19122   7.847   5.288  15.485 -0.4057  0.1678 -0.2544
12319S        S19123   6.884   0.086  14.818 -0.2155  0.0230 -0.4098
12320S        S19124   9.016   3.731  37.509  0.1158  0.0644  0.2545
12321S        S19125   8.741   5.985  16.358 -0.5336  0.0083 -0.1902
12322S        S19126   1.811   9.402  30.919  0.2277  0.1955 -0.0279
12323S        S19127  10.927   1.442  26.873  0.1795  0.4413  0.0304
12324S        S19128  10.776  11.568  27.835 -0.0327 -0.2916 -0.1830
12325S        S19129   4.211   4.850  13.011  0.1407 -0.4250 -0.1857
12326S        S19130   7.965   1.730  26.230  0.3064 -0.5157  0.1860
12327S        S19131   4.154   5.350  28.977  0.4462 -0.5600  0.6432
12328S        S19132   4.886   8.751  25.943 -0.1347  0.3918 -0.3452
12329S        S19133   4.083  11.048  12.474 -0.1288 -0.0398  0.3272
12330S        S19134   9.511   7.183  27.529  0.0582 -0.6019 -0.1972
12331S        S19135  10.462   1.408  13.111  0.1252 -0.2427 -0.7270
12332S        S19136   7.133   0.218  17.713  0.4557  0.3215 -0.4155
12333S        S19137   1.220   2.217  20.695  0.0281  0.0822 -0.2613
12334S        S19138   8.363  10.674  12.812 -0.0652  0.0009 -0.0339
12335S        S19139   7.952   8.010  29.082 -0.3421 -0.5081  0.0629
12336S        S19140   6.332   5.143  24.847  0.1868 -0.2158  0.3387
12337S        S19141   0.638   0.446  21.434  0.2303  0.3278  0.0608
12338S        S19142   3.735  10.420  12.420  0.4126 -0.1922  0.6515
12339S        S19143   7.404  11.945  14.965  0.1747  0.4182  0.3590
12340S        S19144  12.142   1.589  24.829  0.0618 -0.0292  0.2299
12341S        S19145   6.433   5.191  12.053 -0.4379 -0.2340 -0.0291
12342S        S19146   6.138  10.913  21.568 -0.1169 -0.2812  0.0118
12343S        S19147   2.426   3.843  14.225  0.0656  0.1256  0.1378
12344S        S19148   9.496   4.911  15.764 -0.2078 -0.0511  0.0693
12345S        S19149   5.694   8.038  18.792  0.1303  0.2321  0.2732
12346S        S19150   1.605   3.294  48.695  0.0794  0.1646  0.5850
12347S        S19151   6.550   1.596  15.829 -0.2827  0.0576 -0.0881
12348S        S19152   7.003   4.673  25.627 -0.0267 -0.3749  0.0416
12349S        S19153   9.174   8.121  22.734  0.1163  0.1394 -0.3871
12350S        S19154  11.648   9.544  19.047 -0.1692  0.2420  0.1862
12351S        S19155   1.765   9.183  11.951  0.3116  0.1443  0.2455
12352S        S19156   4.292  11.039  29.577  0.2030 -0.1043  0.5181
12353S        S19157  11.105   2.507  15.644  0.0668  0.3199 -0.1224
12354S        S19158   0.740   1.555  12.243  0.0443  0.2494 -0.1921
12355S        S19159   6.607   9.542  14.186  0.0397 -0.0991 -0.0577
12356S        S19160  12.013   5.148  19.580  0.2941  0.1230  0.4026
12357S        S19161   7.740  11.156  16.155  0.4546 -0.1914 -0.2342
12358S        S19162   7.790   5.571  30.760  0.2662 -0.2196 -0.8503
12359S        S19163   5.128   9.076  17.021  0.1854 -0.3813  0.5074
12360S        S19164   4.451   4.316  21.978 -0.2078  0.0019  0.0857
12361S        S19165   7.464   0.526  29.775 -0.2566  0.0939 -0.0374
12362S        S19166   0.270   2.446  26.392 -0.2989 -0.0164 -0.3518
12363S        S19167  11.804   3.619  23.292 -0.3897 -0.2513 -0.0017
12364S        S19168   1.286   3.694  23.780 -0.4753 -0.4871 -0.5381
12365S        S19169   1.217   4.090  13.121  0.1804 -0.0092  0.0614
12366S        S19170   8.442   9.842  28.035  0.5273 -0.0824  0.2027
12367S        S19171   3.662  11.553  27.365 -0.2582 -0.3460 -0.4262
12368S        S19172   8.614   2.043  21.361 -0.0570 -0.3153  0.4570
12369S        S19173   9.832   8.609  24.981  0.3909  0.0194 -0.0389
12370S        S19174   2.659   1.835  19.573  0.3693 -0.3023  0.4829
12371S        S19175   9.085   7.650  22.493  0.2028  0.1967 -0.1139
12372S        S19176  11.879   0.266  17.413  0.3510 -0.6169  0.2457
12373S        S19177   5.329   8.785  23.565  0.3175  0.2308  0.1905
12374S        S19178   7.029   8.914  17.559  0.3579  0.2942  0.0291
12375S        S19179   4.810   1.308  19.737  0.4170  0.4796 -0.2060
12376S        S19180  10.432   1.531  24.411  0.6550  0.4276  0.3867
12377S        S19181   7.960   0.483  31.388  0.1678 -0.4677  0.4335
12378S        S19182   1.722   9.378  17.239 -0.1105 -0.5131  0.0379
12379S        S19183   7.484   3.581  25.314 -0.4814 -0.0589 -0.7483
12380S        S19184  10.336  10.561  28.528  0.2462  0.4360 -0.5186
12381S        S19185   4.495   0.043  26.902 -0.0738  0.3564 -0.0055
12382S        S19186   7.188   1.077  32.976 -0.3297 -0.1513  0.2287
12383S        S19187   9.482  11.056  28.361 -0.1455 -0.2289 -0.0251
12384S        S19188   0.442   5.371  26.600 -0.2278 -0.4747  0.0186
12385S        S19189   5.975   0.158  23.070 -0.5242  0.4656 -0.0652
12386S        S19190   9.885   8.396  15.628  0.2516 -0.1823 -0.1789
12387S        S19191   6.709   6.141  15.584 -0.0107  0.3647  0.0483
12388S        S19192   9.794   3.544  14.836 -0.3123 -0.1984 -0.1742
12389S        S19193   7.251   5.313  19.617  0.3439 -0.5232  0.4726
12390S        S19194   1.474   8.226  40.115 -0.2808 -0.6295  0.2892
12391S        S19195   6.483   1.655  31.916  0.0219 -0.2989  0.4539
12392S        S19196   1.834   8.856  17.254  0.0704  0.4414  0.2895
12393S        S19197   6.484   8.375  22.621 -0.0984  0.1325 -0.4403
12394S        S19198   7.253   5.486  30.657 -0.5295  0.6742 -0.8224
12395S        S19199   3.730   0.015  21.152 -0.1083  0.2684  0.2729
12396S        S19200   3.604  10.672  32.352 -0.1404 -0.6342  0.3863
12397S        S19201  11.326   5.164  24.109 -0.3913 -0.4325 -0.1823
12398S        S19202   5.821   8.927  26.776  0.1456 -0.1430  0.8992
12399S        S19203   9.272   1.213  18.036 -0.2168 -0.2594  0.2082
12400S        S19204   8.966   0.545  22.011 -0.0355 -0.2468 -0.4087
12401S        S19205   6.161  10.642  27.757 -0.1305  0.3118 -0.0852
12402S        S19206   0.292   4.024  33.510  0.4359  0.1243  0.0134
12403S        S19207  11.618   1.445  49.164  0.0347  0.1585  0.1322
12404S        S19208  12.288   2.236  25.696  0.2464  0.4181  0.5481
12405S        S19209  10.179   2.715  18.395  0.5777  0.5565 -0.1828
12406S        S19210  11.064   0.758  12.148  0.1162 -0.0928 -0.6645
12407S        S19211   8.025   4.220  25.070 -0.0274  0.0915 -0.1902
12408S        S19212   9.341   6.065  18.731  0.1703 -0.0661  0.1374
12409S        S19213   5.562   5.770  29.845 -0.0878  0.5305  0.0080
12410S        S19214  10.417  10.373  15.311 -0.1409  0.2291 -0.0508
12411S        S19215   7.335   9.269  26.934  0.0898 -0.7009 -0.5068
12412S        S19216   2.932   4.210  24.185  0.9029  0.3842 -0.6692
12413S        S19217  12.173   4.983  31.100 -0.3757  0.3865 -0.2792
12414S        S19218   5.014   7.985  26.378 -0.2576 -0.0693 -0.1742
12415S        S19219   0.531   3.384  33.283  0.0274 -0.1552 -0.1090
12416S        S19220   9.081   8.266  23.791  0.3615  0.6174  0.4050
12417S        S19221   4.994   2.596  32.664  0.1754  0.1710  0.2832
12418S        S19222   0.008   8.912  11.725 -0.2799 -0.2104  0.6697
12419S        S19223  10.229   4.913  18.916 -0.3073 -0.2119 -0.2500
12420S        S19224   6.437   8.707  29.223 -0.0952 -0.2959  0.1018
12421S        S19225   3.173  11.790  21.313  0.0866  0.3985  0.4784
12422S        S19226  11.999   0.680  17.733 -0.3644 -0.2400 -0.4512
12423S        S19227   6.147   8.088  27.418 -0.2856  0.4236 -0.4254
12424S        S19228   2.057   9.970  44.473 -0.2510 -0.0239  0.1646
12425S        S19229   1.783  11.670  31.339 -0.0486  0.1766 -0.1079
12426S        S19230  10.936   2.202  17.726  0.1070 -0.0259  0.0208
12427S        S19231   4.514  10.091  30.666 -0.3305 -0.4747  0.7457
12428S        S19232   1.570   8.961  18.947  0.2233 -0.0795 -0.2922
12429S        S19233   4.640   8.465   4.950  0.2786  0.6681  0.5574
12430S        S19234   1.354   1.055  28.232  0.2761 -0.3225 -0.0221
12431S        S19235   8.983  10.169  12.039 -0.2160  0.0319  0.0215
12432S        S19236   1.434   6.203  26.824  0.1356  0.3992 -0.2324
12433S        S19237   0.017   3.796  24.004 -0.4946 -0.0145  0.5963
12434S        S19238   7.320   8.887   1.120  0.3274  0.0343 -0.0720
12435S        S19239   2.098   5.865  17.206 -0.3782 -0.2654 -0.6722
12436S        S19240   8.374   4.352  12.672 -0.2503  0.2815 -0.0541
12437S        S19241   2.548   4.008  17.019  0.1970  0.1752 -0.2286
12438S        S19242  10.674  11.142  12.623  0.0355  0.2725  0.5074
12439S        S19243   9.622   5.158  14.801 -0.2474 -0.4736  0.2580
12440S        S19244   2.363   2.936  17.924  0.0019 -1.1389  0.0015
12441S        S19245   6.507   5.685  24.470 -0.2885  0.1979  0.5669
12442S        S19246   6.696   2.955  40.006 -0.0934  0.1330 -0.0595
12443S        S19247   0.708   6.520  17.037  0.0115 -0.1517 -0.1663
12444S        S19248   7.486   5.684  17.327 -0.5462 -0.3998 -0.3915
12445S        S19249  11.660   0.883  27.195 -0.5287  0.2345 -0.3010
12446S        S19250   7.516   2.244  31.363 -1.0799  0.1096 -0.4633
12447S        S19251   1.052   8.538  24.486  0.5731 -0.0941 -0.4903
12448S        S19252   2.511   2.404  24.276  0.0827  0.2405 -0.4260
12449S        S19253   6.289   5.234  26.639  0.3700 -0.5708  0.9535
12450S        S19254   8.177  11.504  27.153  0.2077  0.5052  0.2647
12451S        S19255   9.266   1.317  31.599 -0.0431  0.0983  0.1477
12452S        S19256  10.738   8.395  17.032 -0.3867  0.1432  0.1869
12453S        S19257   5.101  11.147  23.358 -0.5731 -0.4162 -0.2806
12454S        S19258   3.815   0.402  49.262  0.1840 -0.0724 -0.1132
12455S        S19259   3.448   2.050  19.042  0.2335  0.3236  0.3636
12456S        S19260   6.024   2.898  20.618 -0.3224  0.2208  0.1730
12457S        S19261   3.556   0.260  19.102  0.0229  0.2047 -0.4613
12458S        S19262   3.341   4.097  14.050  0.1467 -0.2897  0.2237
12459S        S19263   7.168   0.943  26.722 -0.1517  0.3164  0.2132
12460S        S19264   3.653   0.923  49.285 -0.3280 -0.1053  0.1852
12461S        S19265  12.144   5.534  30.643  0.1246 -0.1929  0.2531
12462S        S19266   6.083   2.267  17.764 -0.1361  0.2097  0.3609
12463S        S19267   2.039   8.813  22.273  0.1969  0.0690 -0.3900
12464S        S19268  10.614  10.317  19.300 -0.3882  0.0055 -0.3871
12465S        S19269   2.904   8.721  32.036  0.6349  0.1921  0.2508
12466S        S19270   3.506   1.056  26.913  0.0417  0.4207  0.0097
12467S        S19271   4.858   2.593  25.720  0.2286 -0.2822  0.4153
12468S        S19272   5.680   2.683  14.691  0.1373 -0.0776  0.7245
12469S        S19273  10.457   1.893  17.593 -0.4072 -0.0874  0.3619
12470S        S19274   8.474   4.457  19.583  0.2501 -0.0142  0.0504
12471S        S19275  10.308  12.285  15.011 -0.0774  0.0380 -0.5094
12472S        S19276   5.064  10.739  16.241  0.0218 -0.2145 -0.2023
12473S        S19277  10.702   6.351  15.278  0.1178  0.3563 -0.0890
12474S        S19278   2.607  11.129  19.047 -0.4689 -0.6220  0.3234
12475S        S19279   8.953   6.658  25.059  0.2009  0.9500 -0.0807
12476S        S19280   0.028   2.509  28.341 -0.1431  0.6789  0.6936
12477S        S19281  11.134  10.132  11.602  0.1372 -0.4264  0.4048
12478S        S19282   2.507   3.035  19.648  0.1404 -0.0665  0.2137
12479S        S19283   3.719  10.097  23.399 -0.0461 -0.1516 -0.1583
12480S        S19284   7.382  10.240  27.328 -0.6223  0.5551  0.3474
12481S        S19285  11.330   3.135  29.711  0.4511  0.1802  0.2466
12482S        S19286   7.755   5.455  23.270  0.0722 -0.6595  0.7471
12483S        S19287   1.579  10.343  19.039  0.0700 -0.0139  0.2327
12484S        S19288   6.796   8.551  23.021  0.1522 -0.3198 -0.2280
12485S        S19289  11.251  11.462  23.053 -0.4168  0.2229 -0.6503
12486S        S19290  10.633  12.271  27.239 -0.1130 -0.5117  0.3707
12487S        S19291   6.774   8.253  15.210  0.1871  0.1064 -0.0197
12488S        S19292  11.383   9.761  19.461  0.0191 -0.4961 -0.0107
12489S        S19293   6.702  10.838  19.827  0.0161 -0.0868 -0.3114
12490S        S19294   8.482  11.214  32.501  0.3865 -0.0682 -0.0726
12491S        S19295  10.021   8.657  26.168 -0.0228 -0.1156 -0.1948
12492S        S19296  10.441   5.501  27.815  0.1309  0.6454 -0.4853
12493S        S19297   7.747   7.765  27.974  0.2248  0.1975  0.2349
12494S        S19298   0.850   5.509  30.005 -0.2520  0.3948 -0.3775
12495S        S19299   3.743  12.132  14.257 -0.1995  0.0184 -0.5125
12496S        S19300   8.711  10.194  27.137 -0.2295  0.1241  0.1715
12497S        S19301   7.910   4.137  30.438  0.3193  0.5383 -0.0636
12498S        S19302   3.102  11.141  14.957 -0.0182 -0.2487 -0.1441
12499S        S19303   1.782   2.659  23.684  0.5156  0.2648  0.2141
12500S        S19304   2.057  12.015  12.917 -0.3541 -0.2928  0.4519
12501S        S19305   7.329   2.153  15.817  0.4383  0.1142 -0.4335
12502S        S19306   0.047   7.510  29.199  0.6725 -0.5827  0.0441
12503S        S19307  11.112   9.482  31.240  0.1301 -0.2643  0.0204
12504S        S19308   3.254   6.148  18.170 -0.2440  0.2485  0.0145
12505S        S19309  11.765   1.057  26.662 -0.4484  0.8138  0.1479
12506S        S19310   5.541   4.456  11.401 -0.0638  0.5368 -0.1116
12507S        S19311  10.803   9.165  26.518 -0.1546 -0.2900  0.3506
12508S        S19312   7.848   3.592  15.052 -0.6151  0.2235 -0.2591
12509S        S19313   4.375   5.991  15.840  0.1988  0.0292  0.2589
12510S        S19314   5.048  10.449  20.732 -0.0080  0.2116 -0.0337
12511S        S19315   8.559   4.850  28.541  0.1869  0.0744 -0.0305
12512S        S19316   7.379  10.300  17.858 -0.1667 -0.0349 -0.1263
12513S        S19317   5.408  11.076  16.411  0.3551  0.1385 -0.2378
12514S        S19318  11.790   8.871  21.298  0.0598 -0.0912 -0.9577
12515S        S19319  10.385   6.982  12.610  0.2951  0.1422 -0.1522
12516S        S19320  10.685   4.094  24.692  0.0697  0.4438  0.6475
12517S        S19321   2.351   6.859  21.681  0.0602 -0.1789 -0.4321
12518S        S19322   4.994   5.244  16.931  0.1788 -0.4741 -0.0754
12519S        S19323   0.912   8.218  20.117 -0.0700 -0.2968 -0.1636
12520S        S19324   7.649   0.229  17.774 -0.3863 -0.4155 -0.1835
12521S        S19325   0.168   7.681  18.496 -0.5140 -0.2423  0.5504
12522S        S19326   2.679   2.582  15.633  0.0182  0.1164  0.1151
12523S        S19327   1.242   3.542  13.063  0.2479 -0.0897 -0.0286
12524S        S19328  12.120  11.000  14.150  0.2190 -0.3546 -0.4979
12525S        S19329   1.893   2.954  30.131 -0.3181  0.5388  0.0860
12526S        S19330   8.862   9.581  18.710  0.0145  0.0005 -0.1176
12527S        S19331   0.511   7.717  15.153  0.1412 -0.0705 -0.1511
12528S        S19332   7.083   6.169  26.635  0.4251  0.3274  0.2174
12529S        S19333   9.896   4.809  18.044  0.4567  0.3781  0.2624
12530S        S19334   8.708   3.025  27.389 -0.3492  0.4285  0.6176
12531S        S19335   8.666   6.965  21.525 -0.0557 -0.0645  0.1090
12532S        S19336  10.711   9.006  24.801  0.4663  0.2742  0.2422
12533S        S19337   1.506   0.254  30.000  0.3467 -0.0451  0.2475
12534S        S19338   6.862   3.293  13.862 -0.2087  0.0309 -0.0169
12535S        S19339   9.536   0.694  29.783 -0.1541  0.4485  0.0299
12536S        S19340   9.715   5.122  30.681 -0.0651 -0.2547 -0.3666
12537S        S19341   0.448  12.203  14.790  0.3785  0.2117  0.1657
12538S        S19342   7.646   5.643  25.189  0.1007 -0.4313  0.0045
12539S        S19343   7.276   8.509  30.489 -0.0010 -0.2083  0.0743
12540S        S19344   1.936   2.875  26.979 -0.0921 -0.0208  0.0038
12541S        S19345   2.258   2.986  14.475  0.4679 -0.1933  0.2401
12542S        S19346   2.897   5.598  11.633 -0.5435  0.0190  0.4073
12543S        S19347   3.768   6.988  13.292 -0.0419 -0.1386  0.6606
12544S        S19348   1.485   1.389  28.928 -0.1004 -0.0914  0.4191
12545S        S19349   2.125   4.949  18.737 -0.1568  0.2929  0.0322
12546S        S19350   6.440  10.348  14.698  0.1641  0.1493 -0.4387
12547S        S19351   4.183   2.846  23.549  0.1131 -0.3679  0.6562
12548S        S19352  12.083   4.408  18.366  0.0559 -0.0931  0.3352
12549S        S19353   8.851   9.861  17.326 -0.1236  0.3877  0.3106
12550S        S19354   4.071   9.034  15.662  0.0357 -0.8029 -0.3250
12551S        S19355   4.639   1.709  17.519  0.2843  0.2149  0.3624
12552S        S19356  11.522   0.447  24.482 -0.2046 -0.5284 -0.1693
12553S        S19357   6.697   5.619  12.149  0.1392  0.1083 -0.0033
12554S        S19358   5.548   6.341  16.345 -0.0003 -0.8541  0.2910
12555S        S19359   0.565   2.865  29.066 -0.4266  0.3406  0.4728
12556S        S19360  11.097   6.121  13.779  0.4553  0.0176  0.1574
12557S        S19361   9.978  10.219  14.355 -0.4739  0.6179 -0.2534
12558S        S19362   1.505   5.327  16.709  0.4446  0.1163 -0.2704
12559S        S19363   5.020   0.575  14.017 -0.0916  0.0756  0.4042
12560S        S19364   7.214   6.656  30.400 -0.1384 -0.1463 -0.0563
12561S        S19365  12.167   5.737  18.529  0.3370  0.4339  0.0118
12562S        S19366  11.567   2.440  12.157 -0.3132 -0.1185  0.3636
12563S        S19367   9.129   5.578  15.622 -0.1141 -0.1319 -0.2459
12564S        S19368   0.566  10.804  13.747  0.7448  0.1224 -0.2382
12565S        S19369   6.077  10.734  11.549  0.0558  0.0042  0.2639
12566S        S19370   0.905   6.635  11.459 -0.4627 -0.3684  0.0188
12567S        S19371  12.342   6.505  11.763 -0.1815 -0.0885  0.4159
12568S        S19372  11.910   9.377  18.640 -0.4843  0.1609  0.0991
12569S        S19373   5.063   5.269  22.047 -0.0945 -0.2500 -0.1293
12570S        S19374   4.449   1.512  15.496  0.3415  0.1424  0.1485
12571S        S19375   9.477   7.406  11.891  0.0199  0.3558  0.3281
12572S        S19376   8.064   1.129  15.620  0.2120 -0.4921  0.3429
12573S        S19377   3.788  10.664  16.286  0.0399  0.3859 -0.1908
12574S        S19378   4.264   4.405  14.099 -0.0382  0.1272 -0.4546
12575S        S19379   5.492   8.369   9.172 -0.0091  0.0772  0.2246
12576S        S19380   2.838   1.273  14.077 -0.2582 -0.0320 -0.4462
12577S        S19381   6.849   9.398  12.983 -0.1474  0.1091  0.6485
12578S        S19382   9.842   5.259  16.296 -0.1046  0.4608  0.2308
12579S        S19383  10.432   4.970  28.493  1.1644  0.4143  0.1209
12580S        S19384  10.814   8.035  10.964  0.1301 -0.2711  0.6347
12581S        S19385   8.660   8.814  20.025  0.1854 -0.0750 -0.0700
12582S        S19386   2.944   4.367  19.609  0.0423 -0.2467 -0.0061
12583S        S19387   0.053   4.818  15.316  0.3134 -0.3767  0.5850
12584S        S19388  10.340   9.761  13.044 -0.0910 -0.0341 -0.1309
12585S        S19389   6.362  10.411  31.264 -0.0742 -0.3672 -0.4099
12586S        S19390  11.735   4.436  29.059  0.1218 -0.3206  0.1169
12587S        S19391   3.393   9.257  24.043 -0.1610  0.5105  0.2096
12588S        S19392   3.309   3.884  20.723  0.1426  0.1227  0.2264
12589S        S19393  10.362   4.697  31.037 -0.1932 -0.3048 -0.0093
12590S        S19394   9.270   8.108  25.764  0.2089 -0.3388 -0.0721
12591S        S19395   4.706   6.025  26.456 -0.0783 -0.1821 -0.3569
12592S        S19396   1.463  11.365  24.100  0.0529 -0.3706  0.6567
12593S        S19397   1.393   7.880  27.819  0.6448 -0.3815 -0.3272
12594S        S19398  10.113  10.466  31.676  0.0489  0.1991 -0.2244
12595S        S19399  10.648   9.501  17.667 -0.0755  0.2116  0.2796
12596S        S19400   6.368   0.375  19.164 -0.0031 -0.0810 -0.2987
12597S        S19401  10.842   6.007  15.659 -0.2440  0.1169  0.2482
12598S        S19402   0.109   9.568  30.446  0.2755  0.7119  0.4870
12599S        S19403   8.707  11.930  18.177 -0.0703 -0.2450 -0.2394
12600S        S19404   6.042   8.360   8.442 -0.0627 -0.0090  0.3563
12601S        S19405   8.330   1.217   9.939 -0.3515  0.0383  0.2344
12602S        S19406   9.255   0.147  22.067 -0.1184  0.3472 -0.2623
12603S        S19407   3.334   2.902  23.070  0.2270  0.6476 -0.2650
12604S        S19408   9.267   9.233  14.068 -0.0324  0.1133 -0.2121
12605S        S19409   4.285   0.960   4.214 -0.0338  0.0079 -0.4613
12606S        S19410  10.884   4.283  12.638 -0.3202  0.2517 -0.4017
12607S        S19411   1.575   3.162  14.738 -0.4666  0.6139  0.2033
12608S        S19412   6.366   7.890  16.073  0.2283  0.2908  0.3389
12609S        S19413   0.596  10.947  33.576 -0.0487  0.1103  0.0943
12610S        S19414   3.508   4.471  25.779 -0.5350  0.1558  0.0320
12611S        S19415  10.228   8.587  15.104  0.1728  0.0209 -0.0270
12612S        S19416   4.800  11.650  22.096  0.6603 -0.0182 -0.2876
12613S        S19417   8.889   9.108  28.160 -0.0182  0.3849  0.1831
12614S        S19418   9.617   6.026  11.435  0.1712 -0.1790  0.0451
12615S        S19419   3.566  11.144  22.168  0.5951  0.0049 -0.0063
12616S        S19420  10.353   6.633  24.883 -0.0289  0.3560 -0.4157
12617S        S19421   0.353   7.776  22.405  0.6226  0.2564  0.0631
12618S        S19422   1.474   3.888  18.567  0.1977 -0.5676 -0.3514
12619S        S19423   6.939   1.259  30.032 -0.0448 -0.1276  0.2355
12620S        S19424   6.950   7.900  29.996  0.4703  0.0272 -0.0608
12621S        S19425   8.609   8.430  16.545 -0.1111 -0.2125 -0.1304
12622S        S19426   3.532   4.015  26.848 -0.3826 -0.3626  0.3147
12623S        S19427   5.599  11.640  18.956  0.1276  0.0339  0.1135
12624S        S19428   4.293   0.703  15.253 -0.5121 -0.0948  0.3556
12625S        S19429   2.757   3.818  23.435 -0.5343 -0.3920 -0.0096
12626S        S19430  10.115   1.111  18.476 -0.1471  0.5366 -0.2600
12627S        S19431   7.046   0.292  33.171 -0.0212 -0.1226  0.4956
12628S        S19432  11.016  10.810  25.627 -0.1519  0.4559 -0.0815
12629S        S19433   5.465   8.381  24.393 -0.0757  0.3314  0.2366
12630S        S19434   0.440   1.309  13.861  0.1699  0.4174 -0.2076
12631S        S19435   6.078   8.371  18.726  0.1597  0.3547  0.5136
12632S        S19436   4.331  10.731  15.767  0.3905  0.2590  0.4596
12633S        S19437   3.472   6.699  26.046  0.5289 -0.6399  0.6555
12634S        S19438   5.665   8.003  11.383  0.0516  0.1124  0.1622
12635S        S19439   0.468  10.966  14.328 -0.2555  0.3280 -0.0198
12636S        S19440   1.940  11.732  25.448 -0.0014 -0.2490 -0.0690
12637S        S19441   6.074   4.500  13.683 -0.2889 -0.4366  0.7083
12638S        S19442   8.281   6.810  12.529 -0.1377  0.1407 -0.1144
12639S        S19443   2.295   7.661  13.421  0.1501  0.1609  0.1880
12640S        S19444   0.918   7.646  12.012  0.3367 -0.0978  0.0294
12641S        S19445   6.205   1.174  25.359 -0.1335  0.2226  0.1833
12642S        S19446   2.287   7.292  21.999  0.1317 -0.5839  0.7658
12643S        S19447   5.962   1.939  14.446  0.2123  0.2960 -0.1658
12644S        S19448   3.809   0.166  21.648 -0.1165  0.4740  0.3241
12645S        S19449   5.277   3.273  15.975 -0.0111 -0.0840 -0.0744
12646S        S19450   9.144   7.221  12.798 -0.0989 -0.0922  0.1049
12647S        S19451  10.651  11.385  26.959 -0.0691 -0.5092  0.7456
12648S        S19452  12.188   2.785  31.817 -0.0866  0.0384  0.3461
12649S        S19453   3.870   1.605   5.201  0.5560  0.0090  0.3879
12650S        S19454  11.282   1.742  21.026 -0.3255  0.1623  0.0699
12651S        S19455   2.332   0.640  12.266  0.3875 -0.0487  0.2465
12652S        S19456   2.438   5.238  13.436 -0.3028 -0.3933 -0.0370
12653S        S19457   5.187  11.311  21.387 -0.2650  0.1470  0.1208
12654S        S19458  11.015  11.882  29.272  0.0548  0.2269  0.2457
12655S        S19459   4.428  12.180  25.934  0.3518 -0.0274 -0.7366
12656S        S19460  11.617   9.377  21.379  0.3618 -0.1524 -0.3797
12657S        S19461   9.731   9.461  13.903 -0.0672 -0.1546  0.3148
12658S        S19462   1.662   8.358  14.358 -0.3579  0.0310  0.4129
12659S        S19463   4.249   4.664  20.144  0.2325  0.2533  0.2152
12660S        S19464   9.526   1.568  26.537  0.3355  0.2375 -0.0168
12661S        S19465   9.945   2.632  22.075  0.4624 -0.3805  0.0375
12662S        S19466   7.292   6.623  17.188  0.1988  0.0027  0.1405
12663S        S19467   9.615   4.431   0.908 -0.0550  0.3877  0.3417
12664S        S19468   8.983  10.541  27.378 -0.1577  0.1602  0.1177
12665S        S19469   5.290   8.477  26.148  0.2686 -0.0337  0.0865
12666S        S19470   8.316   3.081  12.793  0.1714  0.0416 -0.0449
12667S        S19471  10.025   0.583  30.071  0.2468  0.4481 -0.4439
12668S        S19472   1.074   1.672  14.360 -0.0855 -0.1228 -0.0523
12669S        S19473   6.457   6.946  19.114  0.0271  0.1348  0.3277
12670S        S19474   0.066   3.551  24.541  0.2088  0.3506  0.3050
12671S        S19475   2.244   6.448  27.934 -0.4411 -0.1566 -0.0071
12672S        S19476   3.807  11.030   4.123 -0.1305  0.5618  0.1279
12673S        S19477  11.278   2.146  15.338 -0.0835 -0.4284 -0.1214
12674S        S19478   9.870   4.885  14.271  0.2659 -0.1243 -0.0716
12675S        S19479   8.506   8.707  17.685  0.0386  0.1489 -0.2158
12676S        S19480   9.735   7.079  15.986  0.1728  0.1117 -0.0510
12677S        S19481   5.456   7.090  27.254 -0.2259  0.1269  0.2847
12678S        S19482   0.960   9.664  31.798 -0.0841 -0.0549  0.2998
12679S        S19483   6.943   6.808  20.894 -0.4861  0.0747 -0.5434
12680S        S19484  11.424   0.626  19.884 -0.3753  0.2579  0.2011
12681S        S19485   9.244   3.612  11.469  0.0075 -0.2239  0.4123
12682S        S19486   8.569  12.253  25.246 -0.0024 -0.1029  0.2468
12683S        S19487   2.217  10.100  17.436  0.5585  0.0191  0.3176
12684S        S19488   2.202  12.097  14.062 -0.2735 -0.1816  0.1923
12685S        S19489   2.186   9.210  29.812  0.4011 -0.5158  0.2107
12686S        S19490   3.814   5.357  19.242  0.2426 -0.1036  0.3067
12687S        S19491   5.361   9.373  19.741 -0.0952 -0.0039 -0.0607
12688S        S19492   7.609   3.539  17.598 -0.1179 -0.3693 -0.4673
12689S        S19493  11.115   0.088  27.429  0.1299 -0.2626 -0.1417
12690S        S19494   3.199   5.474  12.253 -0.0863  0.4962 -0.5830
12691S        S19495   1.960   6.379  12.502 -0.3708  0.0217 -0.0681
12692S        S19496   9.952   3.979  20.260  0.4868  0.2888 -0.1130
12693S        S19497   9.184   6.153   8.814 -0.1959 -0.2993 -0.1333
12694S        S19498   3.819   7.228  17.080 -0.4582 -0.0526 -0.0060
12695S        S19499   7.168   7.593  11.910 -0.2914 -0.0042 -0.3626
12696S        S19500   2.039  12.257  24.010  0.0312  0.0243  0.3487
12697S        S19501  10.788   6.281  22.391  0.1032  0.2127 -0.2443
12698S        S19502  11.889  11.076  24.937 -0.3277 -0.3092  0.1673
12699S        S19503   0.820   9.863  25.757 -0.2935 -0.1108  0.3631
12700S        S19504   0.582  11.294  20.565  0.1475  0.0517 -0.1721
12701S        S19505   4.731   0.279  28.275  0.1988  0.1241  0.2162
12702S        S19506   4.544   3.270  25.558 -0.2123  0.0760  0.0082
12703S        S19507   5.210   6.430  21.715 -0.6687 -0.1430  0.0794
12704S        S19508   7.731   7.564  17.619  0.3663 -0.1366  0.0703
12705S        S19509   4.901   3.873  28.060  0.2459  0.0860 -0.2385
12706S        S19510  10.499   9.827  25.527  0.7704  0.4983  0.4927
12707S        S19511   2.045   9.196  12.911 -0.6905 -0.3730 -0.1868
12708S        S19512   0.004   3.858  27.829  0.6785 -0.0707  0.2046
12709S        S19513   3.671   4.460  15.223  0.1042  0.0755  0.3052
12710S        S19514   6.685   2.501  20.841 -0.3513 -0.2943 -0.4125
12711S        S19515  10.619  10.649  18.320  0.2236  0.2894  0.1262
12712S        S19516   8.960   0.721  30.066 -0.2404  0.2216  0.1161
12713S        S19517   2.032   2.584  30.920 -0.1449 -0.2068 -0.1972
12714S        S19518   7.917   9.825  16.902 -0.7041 -0.4436 -0.4691
12715S        S19519   0.725   9.388  17.980  0.0758  0.2172 -0.4841
12716S        S19520   1.306   5.025  17.126  0.2494 -0.1211 -0.3644
12717S        S19521   5.080  11.650  18.475 -0.2561  0.7243 -0.0319
12718S        S19522   6.556   9.739  21.843 -0.2457 -0.2451 -0.3513
12719S        S19523  12.071   9.543  16.953 -0.1672 -0.3013  0.2180
12720S        S19524   0.705   9.401  11.950 -0.4693 -0.3255 -0.0214
12721S        S19525   4.458  12.104  33.479  0.0123  0.0758 -0.3143
12722S        S19526   7.321   1.526  11.255 -0.2362  0.3892  0.2720
12723S        S19527   3.581   6.691  19.996  0.1774 -0.4400 -0.2298
12724S        S19528   6.762   2.446  30.407 -0.2018  0.2577 -0.2541
12725S        S19529   1.434   5.437  27.695 -0.0691 -0.2006 -0.1476
12726S        S19530   3.207   7.555  30.592 -0.1789 -0.1018  0.7174
12727S        S19531   6.985   7.399  13.724 -0.1241  0.3175 -0.0239
12728S        S19532   6.051   3.347  22.131  0.0783  0.2977 -0.1154
12729S        S19533   4.417   4.990  13.480  0.2838 -0.3239  0.1398
12730S        S19534   7.502   7.884  18.938 -0.0323 -0.4674 -0.0889
12731S        S19535   1.102   8.713  26.462  0.8257  0.3916 -0.0823
12732S        S19536   8.341   4.250  14.440 -0.3517  0.2531  0.4809
12733S        S19537  10.773   9.766  16.321 -0.1432 -0.0554  0.7654
12734S        S19538   5.293  10.043  23.426  0.1697  0.0320  0.6969
12735S        S19539   6.688   0.466  13.860  0.1848  0.0752 -0.3917
12736S        S19540   1.035   3.002  18.382 -0.1182  0.5242 -0.0319
12737S        S19541  10.921  11.890  35.572  0.0160  0.2025  0.0415
12738S        S19542   2.010   7.004  31.572  0.1494  0.4030  0.5595
12739S        S19543   6.433   1.995  23.288 -0.1952 -0.2599  0.0830
12740S        S19544   3.656   3.269  15.134  0.0840  0.1083 -0.3450
12741S        S19545  10.838   1.606  12.568 -0.3957 -0.3377 -0.2064
12742S        S19546   7.482   6.418  23.920 -0.2653  0.2873 -0.2541
12743S        S19547  11.369   6.063  16.407 -0.1014  0.3039 -0.2140
12744S        S19548   1.047  10.585  17.447 -0.5235  0.1041 -0.3239
12745S        S19549  10.872   6.133  16.241  0.1642  0.1656  0.0726
12746S        S19550   6.563  12.119  27.774  0.0078 -0.2159 -0.1107
12747S        S19551   5.079   8.459  30.204 -1.4558 -0.1898  0.1421
12748S        S19552   8.404   1.932  14.435  0.0837  0.0783 -0.0493
12749S        S19553   5.891   1.289  11.233  0.3392 -0.0579 -0.2442
12750S        S19554   1.391   6.932  11.486 -0.0197 -0.1339  0.0415
12751S        S19555   1.023   0.413  30.202  0.4096  0.4923 -1.1916
12752S        S19556   2.424   3.935  22.377  0.1203  0.0330  0.2705
12753S        S19557   4.338   3.997  32.192  0.3544 -0.1616 -0.7070
12754S        S19558   8.805   6.373  21.150  0.1829  0.0481 -0.4110
12755S        S19559   1.683   7.513  28.114 -0.5504  0.0210 -0.1523
12756S        S19560   1.729  10.244  16.099 -0.1049  0.4405 -0.1338
12757S        S19561   1.279   7.915  29.020 -0.1993  0.1429 -0.0080
12758S        S19562  11.773   6.841  31.716  0.4679 -0.6009 -0.3288
12759S        S19563   6.633  10.732  11.614  0.2722 -0.2202 -0.2393
12760S        S19564   0.038   7.152  21.120 -0.5394  0.7618 -0.2269
12761S        S19565   3.528   0.524  21.941 -0.0184 -0.4480 -0.4001
12762S        S19566   9.979   1.114  30.846 -0.2195 -0.3330  0.6150
12763S        S19567  12.082   2.019  21.585 -0.0032  0.6065 -0.4444
12764S        S19568   7.224   2.154  30.293  0.0520  0.3763 -0.0057
12765S        S19569   7.294  11.181  23.941 -0.1061  0.1918  0.2060
12766S        S19570  11.198   9.304  19.094 -0.2522  0.0673  0.2298
12767S        S19571  10.749  10.893  19.288 -0.7841 -0.3078  0.2662
12768S        S19572   3.056   3.316  23.612 -0.1466  0.2828 -0.2835
12769S        S19573   0.250   4.232  14.625  0.1334 -0.4736 -0.2216
12770S        S19574   4.683   3.744  23.058 -0.0027  0.5339  0.2908
12771S        S19575   8.680   4.864  13.321 -0.2772  0.1192 -0.1674
12772S        S19576  11.347  10.574  11.346  0.0280 -0.3960  0.1613
12773S        S19577   8.123   2.841  25.857 -0.2086  0.2269 -0.2089
12774S        S19578   7.587   8.331  22.171  0.2743  0.5033  0.7161
12775S        S19579  11.019   6.127  26.017 -0.0581  0.0359  0.0519
12776S        S19580  11.203   1.396  23.616  0.2010  0.1070 -0.0469
12777S        S19581   3.341   1.740  46.163  0.5491  0.3880 -0.0576
12778S        S19582   0.999   4.748  22.920  0.4707  0.0779 -0.3440
12779S        S19583   4.157   5.800  17.736  0.3317  0.2416 -0.5658
12780S        S19584  10.026   4.508  15.143  0.6330  0.3769  0.1104
12781S        S19585  11.265   6.521  18.846 -0.1008 -0.0433 -0.0034
12782S        S19586   7.976   4.003  12.582 -0.2723  0.1531  0.1565
12783S        S19587   5.607  12.362  11.962 -0.3484 -0.0114  0.1789
12784S        S19588   2.258   2.545  25.993  0.1350  0.1801 -0.0126
12785S        S19589   8.664   7.296  31.589  1.0238 -0.1796 -0.0969
12786S        S19590   7.183  10.384  14.083 -0.2061  0.1322 -0.0274
12787S        S19591  10.352   0.885  31.661 -0.3344  0.3036  0.4505
12788S        S19592   8.577   5.613  21.520  0.4381 -0.1064 -0.1338
12789S        S19593   9.183  10.510  24.860 -0.0310  0.2621  0.0943
12790S        S19594   7.807   3.883  27.341  0.1984 -0.0434  0.3523
12791S        S19595   7.229   1.039  23.296  0.0605 -0.9412  0.1999
12792S        S19596   4.938   5.673  14.023 -0.2125 -0.4745 -0.2536
12793S        S19597   0.470   8.776  44.112  0.0918  0.0574 -0.2744
12794S        S19598   8.164   7.351  14.865  0.3273  0.2045 -0.0471
12795S        S19599   4.567   6.517  22.378  0.5713 -0.2292  0.0178
12796S        S19600   2.292   2.255  23.648 -0.3802 -0.6849 -0.1823
12797S        S19601   9.436   1.843  12.480  0.3895 -0.1891 -0.3369
12798S        S19602  12.216   2.848  18.569 -0.0078 -0.1900  0.2312
12799S        S19603  11.390   3.429  12.203 -0.2706 -0.2190  0.0339
12800S        S19604   7.226  11.663  12.631 -0.2845 -0.0048  0.5069
12801S        S19605   1.251  10.487  11.748 -0.3271  0.1887  0.1183
12802S        S19606  10.444  12.347  20.306  0.2868  0.9663 -0.1549
12803S        S19607   4.447   9.136  28.390  0.1774 -0.5272  0.3921
12804S        S19608   8.105  10.744  19.385  0.2259  0.6235  0.1142
12805S        S19609   7.309   6.446  19.991  0.2367  0.2338 -0.5651
12806S        S19610   7.713   6.115  25.402 -0.4841 -0.0423 -0.0458
12807S        S19611   6.014   9.216  21.555  0.0725 -0.4497 -0.5276
12808S        S19612   0.142   9.204  23.970  0.1677  0.0731  0.2346
12809S        S19613   8.242   8.212  15.086 -0.3633  0.0771  0.5045
12810S        S19614  10.090   7.906  19.299 -0.0999 -0.2098  0.0424
12811S        S19615  11.318   0.963  15.872 -0.0375 -0.1783  0.1571
12812S        S19616   1.479   7.549  18.737  0.5097 -0.3499  1.1075
12813S        S19617   9.252   6.568  33.009 -0.1844  0.0524 -0.2400
12814S        S19618   1.383   1.070  23.873  0.2030  0.0060 -0.0836
12815S        S19619   8.806   1.793  11.838 -0.0083  0.3426 -0.0247
12816S        S19620   6.152   5.158  21.504  0.0248  0.6939  0.5088
12817S        S19621  10.996   5.749  30.063 -0.1014  0.1414 -0.3786
12818S        S19622   2.955   7.154  19.616  0.1608 -0.3163  0.5619
12819S        S19623   4.244  10.986  16.670  0.2520  0.0069 -0.0186
12820S        S19624   8.494  11.879  22.864 -0.7199  0.1189 -0.0784
12821S        S19625   1.259   5.594  15.636 -0.2188  0.3868  0.1605
12822S        S19626   3.225  11.717  27.901  0.1535 -0.4238 -0.4851
12823S        S19627   8.752  10.400  22.783 -0.2316  0.0039  0.2444
12824S        S19628   1.045   4.757  31.296 -0.5268  0.9150  0.3457
12825S        S19629   9.891   1.675  16.901  0.0680 -0.5033  0.0942
12826S        S19630   2.885  10.290  15.611  0.3172 -0.2684 -0.1430
12827S        S19631   7.716   2.246  35.522 -0.2111  0.1210  0.3745
12828S        S19632   4.258   5.673  16.204  0.0218 -0.2284 -0.0065
12829S        S19633   8.329   7.786  23.767  0.4797 -0.3478 -0.1690
12830S        S19634   2.700   2.226  28.063 -0.0036 -0.4174 -1.0035
12831S        S19635   8.662   3.297  19.298  0.6217  0.3883 -0.1525
12832S        S19636  11.723   0.847   7.398  0.1218  0.3111  0.4061
12833S        S19637   7.221   7.894  20.328  0.1524  0.0456  0.2907
12834S        S19638   7.901   4.190  15.628 -0.4392 -0.2672 -0.1396
12835S        S19639   8.615  11.521  19.495  0.0745 -0.1408  0.0217
12836S        S19640   9.050   7.340  11.441  0.0259  0.4780  0.0003
12837S        S19641   4.518   6.448  21.164  0.2429 -0.0611 -0.0309
12838S        S19642   9.860   4.892   5.934  0.0897 -0.0756  0.5223
12839S        S19643   7.700   3.866  28.628  0.1512  0.0958  0.4260
12840S        S19644  11.496   2.415  11.649  0.3117 -0.1343 -0.2703
12841S        S19645   2.796   0.261  21.999  0.2001  0.2205 -0.0615
12842S        S19646  11.004   7.273  17.290  0.0225 -0.5391  0.1989
12843S        S19647   1.856   2.012  16.148  0.5365 -0.5777  0.3122
12844S        S19648  10.831  10.255  25.314  0.0871  0.0197  0.0980
12845S        S19649   6.456   5.586  17.453 -0.4392  0.1598 -0.1148
12846S        S19650   7.523  11.216  15.250  0.2647 -0.1030  0.1431
12847S        S19651   1.049   9.353  21.245  0.0345  0.1617 -0.0215
12848S        S19652   8.802   3.090  18.399  0.2277  0.5241 -0.0833
12849S        S19653   2.732  11.323  20.992 -0.3872  0.4155  0.1997
12850S        S19654   5.472  10.667  16.668 -0.4630  0.4100  0.2660
12851S        S19655   5.620   1.587  31.788 -0.0386  0.3095 -0.0341
12852S        S19656  12.086   0.696  27.429  0.3447 -0.0038 -0.3436
12853S        S19657   4.876   6.118  11.957  0.3551 -0.1769 -0.0983
12854S        S19658  10.844   1.797  34.655 -0.1533  0.4415  0.2445
12855S        S19659  11.995  10.204  16.821 -0.0718 -0.0864  0.1397
12856S        S19660   8.660   3.077  26.755  0.8025 -0.1491  0.1798
12857S        S19661   5.216   2.978  20.101  0.0997  0.1193  0.2539
12858S        S19662  10.857   3.018  21.871 -0.2225  0.1108  0.0487
12859S        S19663   3.181   0.356  12.442 -0.4516 -0.2411 -0.3267
12860S        S19664   7.447   0.978  11.186 -0.1545  0.1062 -0.3341
12861S        S19665   4.475   5.712  13.372 -0.2590 -0.1230 -0.0668
12862S        S19666  11.718   5.777  16.185 -0.1681  0.0229  0.3870
12863S        S19667  11.622   0.184  19.471 -0.0842 -0.2038  0.0372
12864S        S19668   9.132   5.863  12.390  0.2381 -0.0111  0.3666
12865S        S19669  10.571   1.195  29.991 -0.4135  0.4330  0.8982
12866S        S19670   2.164   2.371  14.365  0.2578  0.0753 -0.1107
12867S        S19671   8.590   7.104  30.538 -0.2015 -0.0934  0.0779
12868S        S19672  11.128   8.075  11.883  0.4258 -0.0856 -0.0723
12869S        S19673   8.676   0.949  20.643  0.0041 -0.0970  0.3481
12870S        S19674   4.930   2.442  15.441 -0.2546 -0.0456 -0.1803
12871S        S19675   2.286   3.022  27.803 -0.1437  0.4113 -0.5735
12872S        S19676   9.979   0.401  31.001 -0.2956  0.0518 -0.2381
12873S        S19677   5.436   0.260  38.327 -0.0455  0.1736  0.8437
12874S        S19678   9.993   5.005  41.227  0.2864  0.1176 -0.0020
12875S        S19679   4.270   3.627  24.626  0.0121 -0.1234 -0.0228
12876S        S19680  10.089  10.948  41.617 -0.0043  0.0016 -0.2254
12877S        S19681   7.549   6.433  12.902  0.4268  0.3495 -0.1589
12878S        S19682   5.437   6.295  30.016  0.0576  0.1130  0.4452
12879S        S19683   4.696   9.839   6.240 -0.4584 -0.3323 -0.1802
12880S        S19684   6.672  12.059  28.933  0.1144  0.1379 -0.1214
12881S        S19685   7.438   7.706  13.918  0.1031 -0.2223 -0.1359
12882S        S19686   5.819  12.218  22.203 -0.4798  0.0479  0.3809
12883S        S19687   9.041   1.491  20.088 -0.0317  0.1066  0.1545
12884S        S19688   9.724   2.395  13.823  0.2294  0.0480 -0.7164
12885S        S19689   8.564  12.075  19.572 -0.0424 -0.0845  0.4804
12886S        S19690   1.777   0.683  27.067  0.0812 -0.0533 -0.6031
12887S        S19691  10.858   5.469  26.773 -0.0747 -0.1065  0.0105
12888S        S19692  11.668   5.368   5.693  0.0711 -0.2701  0.0036
12889S        S19693   6.762  10.500  30.918  0.0315  0.2843  0.0630
12890S        S19694   4.802   0.866  18.247 -0.0072 -0.2633  0.0356
12891S        S19695   8.840   3.050  15.204 -0.1113 -0.1452 -0.1150
12892S        S19696   3.373   6.397  19.185  0.3668  0.2409 -0.2064
12893S        S19697   1.589   9.306  18.410  0.4209 -0.1540 -0.4284
12894S        S19698   8.824   1.600  26.028 -0.1787 -0.1578 -0.6201
12895S        S19699   1.102   2.449  18.391 -0.2057 -0.6746 -0.0338
12896S        S19700   8.151  10.247  19.574  0.1024 -0.2537 -0.2105
12897S        S19701   4.097  10.478  16.673  0.3240 -0.0035 -0.2809
12898S        S19702   6.489   0.080  21.497  0.6666 -0.4840  0.0531
12899S        S19703   0.950   9.658  24.959  0.4001 -0.7560 -0.1742
12900S        S19704   4.218   0.013  22.637 -0.0478 -0.3714 -0.0138
12901S        S19705   5.515  10.509  18.062  0.0149  0.0603  0.5238
12902S        S19706   7.485  12.056  31.169  0.0236  0.0473  0.2112
12903S        S19707  10.121  11.545  32.622  0.5420 -0.1451 -0.3818
12904S        S19708   1.259   6.599  11.858 -0.0958 -0.0689 -0.0515
12905S        S19709   9.014  12.242  23.585  0.1612 -0.4875  0.2884
12906S        S19710   7.390   4.425  15.928 -0.0318 -0.6491  0.2907
12907S        S19711   2.492   1.834  20.341  0.4336 -0.3013 -0.0004
12908S        S19712   8.517   7.234  26.201 -0.8125  0.1724  0.0072
12909S        S19713   0.650   3.131  22.378 -0.3594  0.4879 -0.1198
12910S        S19714   8.511  11.316   5.096  0.3840  0.0960  0.7682
12911S        S19715   7.544   7.329  12.098 -0.3494  0.4830 -0.0018
12912S        S19716   9.715   6.979  28.504 -0.3369 -0.9932 -0.5303
12913S        S19717   9.014   8.117  28.949 -0.1502 -0.3540  0.1196
12914S        S19718   3.174   0.016  22.865  0.3746 -0.1528  0.0525
12915S        S19719   7.772   4.394  18.758  0.0501 -0.0688  0.2823
12916S        S19720   8.347   4.402  18.158  0.3527 -0.3579  0.0500
12917S        S19721   2.398   5.341  26.511 -0.0392 -0.3733  0.0783
12918S        S19722   8.566   4.336  28.185  0.5595  0.5613 -0.3206
12919S        S19723   9.220   3.794  31.233 -0.3066 -0.2224 -0.4815
12920S        S19724  11.243   6.412  12.453 -0.1729  0.0115 -0.0908
12921S        S19725   0.567   8.291  16.504  0.2484 -0.3889  0.2581
12922S        S19726   6.520   1.303  14.223 -0.0700  0.2195 -0.0211
12923S        S19727   6.846  11.500  29.135 -0.1593 -0.3438 -0.5285
12924S        S19728  12.086  10.664  11.694  0.0948  0.4415  0.2331
12925S        S19729   0.508   4.022  17.281 -0.0939  0.5037  0.0687
12926S        S19730   0.848   8.710  30.345  0.4987  0.0097  0.1625
12927S        S19731   0.663  12.138  24.650  0.2586  0.6014  0.1725
12928S        S19732  10.640   6.997  10.917 -0.3922  0.1578 -0.1337
12929S        S19733  11.185  10.706  18.382  0.3334  0.1617  0.6097
12930S        S19734   1.992   3.665  15.485  0.3828  0.1871  0.1270
12931S        S19735   2.168   1.692  19.579  0.1200  0.0323 -0.6085
12932S        S19736   7.280   1.281  12.495  0.1686  0.1052 -0.1849
12933S        S19737   9.868   0.203  21.227 -0.1509 -0.0856  0.2267
12934S        S19738   5.632   5.930  17.210  0.1870  0.1492  0.0697
12935S        S19739   4.291   9.303  24.524 -0.4906  0.6923 -0.2700
12936S        S19740  11.708   0.477  20.284  0.6924  0.2213  0.1409
12937S        S19741   7.269  10.551  21.655  0.4387 -0.0981 -0.1822
12938S        S19742   3.438   7.662  10.243 -0.2771  0.2453  0.3958
12939S        S19743   9.442   3.579  19.441 -0.0679  0.4282  0.1595
12940S        S19744   4.118   2.797  16.107  0.0397 -0.2459  0.1429
12941S        S19745   6.819   2.526  13.502  0.3393  0.6329  0.0014
12942S        S19746  10.370   8.219  18.040 -0.0058  0.3229 -0.1090
12943S        S19747  10.588   7.896  22.930 -0.2319  0.3651 -0.9055
12944S        S19748   7.825   0.745   9.942  0.1095  0.0501  0.4217
12945S        S19749  12.051   8.678  18.987  0.3200 -0.3043  0.7001
12946S        S19750   3.852   9.254  17.659  0.1679 -0.1304 -0.1008
12947S        S19751   0.944   4.596  13.929  0.2234 -0.0424 -0.0935
12948S        S19752   9.819   6.791  31.404  0.4212  0.2479 -0.2044
12949S        S19753   4.601   9.760  14.433  0.0412 -0.0522  0.2353
12950S        S19754   7.075  11.285  24.990  0.1394 -0.1932  0.0466
12951S        S19755   1.558   9.372  13.015  0.1079 -0.3531  0.9603
12952S        S19756   4.833   1.711  15.861  0.1209 -0.2023 -0.4460
12953S        S19757   5.726   0.593  26.836 -0.2440 -0.0100 -0.0854
12954S        S19758   0.012   1.987  32.899 -0.0686 -0.2731  0.1137
12955S        S19759   1.916   8.656  11.918  0.1645 -0.1243 -0.0628
12956S        S19760   1.388   5.064  14.262  0.0672  0.2588 -0.2108
12957S        S19761  11.605   6.071  12.194 -0.2531 -0.0007 -0.1381
12958S        S19762   9.434  11.407  18.151 -0.0536 -0.7135 -0.1267
12959S        S19763   2.948   6.536  23.281  0.3982 -0.3179  0.3692
12960S        S19764   6.501   5.913  21.183  0.1122  0.2141 -0.3079
12961S        S19765   7.434  11.143  25.951  0.1575 -0.5604 -0.9924
12962S        S19766   7.631   1.864  18.541  0.1989  0.2450 -0.1433
12963S        S19767   4.416   4.780  23.912  0.4022 -0.0657 -0.2534
12964S        S19768  11.636  10.080  17.232 -0.0249 -0.2750 -0.2086
12965S        S19769  10.912   0.789  16.253 -0.1147 -0.5482  0.4592
12966S        S19770   5.894  11.518  14.793 -0.1700 -0.4913 -0.0203
12967S        S19771   0.550   1.606  14.216  0.2087  0.0200 -0.2470
12968S        S19772   0.269   6.269  32.314 -0.0556 -0.7251  0.7207
12969S        S19773   8.684   0.449  25.248  0.6152  0.5167 -0.1605
12970S        S19774   4.431   3.938  20.529  0.3788  0.6027  0.4621
12971S        S19775   7.835   1.953  14.911 -0.1952 -0.0339 -0.0066
12972S        S19776   1.563  11.413  21.227 -0.1297 -0.3927 -0.1431
12973S        S19777  10.172   4.387  13.491 -0.1592 -0.2283 -0.1904
12974S        S19778   5.401   6.695  23.897 -0.0948  0.0522 -0.0110
12975S        S19779  11.982   6.591  19.624  0.5946 -0.0488  0.3015
12976S        S19780   4.055   4.052  21.869 -0.0322  0.2110 -0.5313
12977S        S19781   0.890   0.207  26.098 -0.3763 -0.3254 -0.2563
12978S        S19782   7.943   7.224  31.618 -0.0074  0.0005 -0.6826
12979S        S19783   8.909   4.713  22.833  0.3155  0.4704  0.1185
12980S        S19784   9.138   6.785  26.651  0.4455 -0.2899  0.6613
12981S        S19785   4.733   4.599  24.441 -0.3463 -0.0703 -0.1175
12982S        S19786   5.597   7.516  30.063 -0.0514  0.1161 -0.2944
12983S        S19787   6.256   9.894  19.641  0.3792  0.3208  0.0811
12984S        S19788   4.331  12.285  17.163  0.2941  0.0061 -0.2738
12985S        S19789   5.081  12.204  21.397  0.1623 -0.0812  0.1161
12986S        S19790   9.073   5.867  23.193  0.2377  0.1103 -0.4226
12987S        S19791   9.190   0.257  26.627 -0.6352  0.5838 -0.1239
12988S        S19792   2.467  11.663  13.015  0.4879  0.5252 -0.4247
12989S        S19793   0.928   0.711  14.696  0.2867  0.0583  0.3215
12990S        S19794   8.852   4.499  18.178 -0.2942  0.1931  0.1437
12991S        S19795   9.338   4.885  26.133 -0.0155  0.0589 -0.2221
12992S        S19796   0.082   0.681  17.419 -0.7660  0.2432  0.2472
12993S        S19797   5.653   1.963  15.294  0.2999  0.0271 -0.2620
12994S        S19798   3.878   1.994  27.145 -0.2146 -0.0602  0.9521
12995S        S19799   5.782   0.381  11.130 -0.3790  0.0855  0.2267
12996S        S19800   6.721   8.401  30.199 -0.1660  0.3938  0.2455
12997S        S19801  11.578  10.869  16.214  0.1124 -0.2270 -0.2098
12998S        S19802   3.196  10.049  18.983  0.0090  0.1807  0.0522
12999S        S19803  11.000  10.644  26.116  0.2023 -0.4151 -0.0988
13000S        S19804   8.401   6.496  29.651  0.6099 -0.3721  0.2649
13001S        S19805   7.986   7.920  26.135  0.2923 -0.1409 -0.2065
13002S        S19806   7.001   1.857  14.461 -0.1196  0.4472  0.0950
13003S        S19807   4.624   6.510  19.520  0.2189  0.2156 -0.2792
13004S        S19808   9.887   8.834  25.470 -0.3804 -0.1111  0.2576
13005S        S19809   8.863   2.067  16.773 -0.6704  0.4387 -0.0689
13006S        S19810   9.570   4.439  13.392 -0.5331  0.1208  0.1859
13007S        S19811   7.448   9.894  23.939  0.2786 -0.1137 -0.7314
13008S        S19812   8.735   3.842  26.207 -0.2439 -0.8520  0.1261
13009S        S19813   9.442   0.601  22.572  0.0169 -0.0759  0.2101
13010S        S19814   0.155  10.982  26.941  0.2572 -0.1414 -0.1181
13011S        S19815  12.152  12.323  33.213  0.2927  0.2072 -0.3789
13012S        S19816   0.268   5.962  30.350 -0.1000 -0.5382  0.1749
13013S        S19817   5.927   3.582  16.604  0.2045 -0.6011  0.2927
13014S        S19818  11.481   4.232  21.918 -0.3877  0.0976  0.0535
13015S        S19819   7.796   1.556  13.304 -0.1639 -0.0650  0.2435
13016S        S19820   4.497   0.642  28.032 -0.4533  0.1767  0.5403
13017S        S19821   2.349  11.332  20.730 -0.1844 -0.1656 -0.5500
13018S        S19822   4.397   1.992  26.086 -0.2826 -0.2771  0.2097
13019S        S19823   8.672   2.010  30.558 -0.2152  0.2180  0.2672
13020S        S19824   4.644   2.022  21.741 -0.0372  0.5307 -0.1172
13021S        S19825   2.873  10.834  27.753  0.2289  0.1487  0.6918
13022S        S19826   0.222   3.759  14.500  0.2295  0.2682  0.3113
13023S        S19827   8.557   6.683  24.666 -0.2770  0.2140  0.1932
13024S        S19828  10.465  10.943  25.439  0.0423 -0.2139  0.2881
13025S        S19829   9.839   3.917  24.166 -0.2180 -0.0773  0.0960
13026S        S19830   4.068   4.906  13.895 -0.1317 -0.0867 -0.1274
13027S        S19831   3.979   5.107  19.963 -0.1169  0.3414  0.1650
13028S        S19832   0.677   1.760  23.920  0.1062  0.6077  0.0434
13029S        S19833   0.604   3.281  32.089 -0.2881 -0.6219 -0.2390
13030S        S19834   1.546   3.105  18.317 -0.3773 -0.1210 -0.1175
13031S        S19835   4.729   6.465  30.570 -0.0283 -0.1715 -0.0761
13032S        S19836   3.126   8.394  16.326  0.1660 -0.4152  0.4011
13033S        S19837   1.670   8.847  28.147  0.3796 -0.5221 -0.1801
13034S        S19838  10.133   1.675  15.047 -0.0258 -0.1495 -0.6203
13035S        S19839   2.147   4.650  30.697 -0.2310  0.3213  0.2809
13036S        S19840   6.632  10.791  12.490 -0.4422  0.0947 -0.4419
13037S        S19841   1.869   0.624  14.609  0.5746  0.1532 -0.0562
13038S        S19842   4.854   9.059  19.059 -0.3956 -0.0448  0.0064
13039S        S19843  10.588   2.733  12.642  0.2556  0.0358  0.0619
13040S        S19844   8.875   1.202  19.072 -0.4012 -0.2374 -0.4789
13041S        S19845   9.946   4.383  13.011 -0.1253  0.4470  0.3561
13042S        S19846   4.856  10.737  13.568  0.0384 -0.0134  0.1185
13043S        S19847   2.370  10.944  17.697  0.3925  0.0351  0.2069
13044S        S19848   1.879  12.197  22.288  0.2545 -0.3715 -0.1501
13045S        S19849  11.288   9.419  17.781  0.2832 -0.0866  0.0306
13046S        S19850   1.935   5.268  18.083 -0.6506 -0.1718 -0.6807
13047S        S19851   4.776   8.311  11.729  0.2601 -0.3081  0.0387
13048S        S19852  11.279  10.455  30.634 -0.2759 -0.1581  0.2466
13049S        S19853  11.784   6.734  28.641 -0.2167  0.0817 -0.4627
13050S        S19854   9.907   8.111  28.785  0.2739  0.2298 -0.1833
13051S        S19855   7.219   2.489  28.870  0.3403  0.1158  0.3713
13052S        S19856   7.415   8.025   3.140  0.0842 -0.0075  0.4886
13053S        S19857   3.518   0.517  29.339  0.0121 -0.0321  0.1510
13054S        S19858   3.075   7.455  27.593  0.2354  0.7834  0.2835
13055S        S19859  10.343   1.667  28.595  0.0390 -0.0436 -0.5591
13056S        S19860   9.611   2.984  12.581 -0.2507  0.6789 -0.2375
13057S        S19861   3.531  10.391  27.419 -0.3665 -0.5137 -0.2649
13058S        S19862   8.241   2.668  32.650  0.3431 -0.2947  0.1399
13059S        S19863   2.861   0.821  13.388 -0.1115 -0.1687  0.3586
13060S        S19864   0.726   9.254  17.475  0.0736  0.8558 -0.1112
13061S        S19865   1.642   7.364  16.474 -0.0906 -0.1408 -0.1494
13062S        S19866   2.026   1.234  26.387 -0.2135  0.6885  0.3701
13063S        S19867   5.992   5.066  27.250 -0.2054  0.3097  0.1732
13064S        S19868   2.957   2.274  34.208  0.7066  0.6343  0.2291
13065S        S19869   4.985   5.038  13.366  0.5443 -0.2590  0.0276
13066S        S19870   1.480   0.460  18.720  0.4035  0.1118 -0.1018
13067S        S19871   2.576   9.530  23.875 -0.1788  0.2771  0.1045
13068S        S19872  11.723  11.988  27.825  0.4713  0.4786  0.1143
13069S        S19873  12.225   1.466  28.130  0.6736 -0.1459 -0.1169
13070S        S19874  11.072   3.279  35.442 -0.1710 -0.0800  0.6474
13071S        S19875   7.816   0.572  19.753 -0.1529  0.2886  0.3520
13072S        S19876   1.065   7.192  20.387 -0.2562 -0.3478 -0.5424
13073S        S19877   5.027  12.097  23.915 -0.1341 -0.1914  0.1512
13074S        S19878   9.197   9.239  17.173 -0.0661  0.0731  0.5626
13075S        S19879   4.876  10.363  17.768  0.5481 -0.3633 -0.3603
13076S        S19880   8.327   5.736  27.056 -0.8098  0.2043  0.2051
13077S        S19881  11.693   2.771  16.519  0.1775 -0.1947 -0.0556
13078S        S19882   6.439   4.687  12.785 -0.6075  0.4281  0.4367
13079S        S19883   3.480   6.060  25.232  0.5038 -0.3752 -0.1018
13080S        S19884   6.727   8.856  22.133  0.2813  0.6385 -0.3385
13081S        S19885   8.114   2.197  18.491  0.0847 -0.3600 -0.3337
13082S        S19886   2.917  11.178  30.385  0.6441 -0.5969 -0.2637
13083S        S19887   3.567   2.737  25.430 -0.1610  0.1653  0.1702
13084S        S19888  12.300  11.557  12.833 -0.1855  0.3736  0.3154
13085S        S19889   9.191   6.693  13.657  0.1398  0.1322 -0.1012
13086S        S19890   4.234   1.533  17.122  0.0284 -0.2712 -0.0618
13087S        S19891  12.064  10.079  27.583 -0.0928 -0.2611  0.0677
13088S        S19892  11.602   6.795  20.560  0.8291 -0.3389 -0.3010
13089S        S19893   5.826   7.745  22.064  0.0407  0.0926 -0.2335
13090S        S19894  10.315   5.054  30.114  0.5890  0.3640 -0.4279
13091S        S19895  10.443   8.666  20.705 -0.0125 -0.1142  0.0127
13092S        S19896   3.234   3.264  26.199 -0.1722 -0.2826  0.0846
13093S        S19897  12.030   4.631  11.342  0.1407  0.2575 -0.2318
13094S        S19898   7.827  11.503  30.528 -0.0398 -0.2750  0.0397
13095S        S19899  11.116   6.225  11.256 -0.4553 -0.1775 -0.0642
13096S        S19900   8.379   0.096  13.811  0.2479  0.5577  0.1110
13097S        S19901   5.921  10.313  20.882  0.0028  0.4771 -0.0867
13098S        S19902   5.056   7.318  24.164 -0.4693 -0.0859  0.4731
13099S        S19903  10.083   4.707  25.538  0.1390  0.1532  0.7167
13100S        S19904   5.442   9.976  21.581  0.1741  0.1419 -0.3855
13101S        S19905   8.872   5.528  16.698 -0.1719 -0.0204 -0.1132
13102S        S19906   8.099   5.346  21.469  0.1557  0.1090  0.1000
13103S        S19907  10.918   7.514  28.901  0.1566 -0.3945 -0.3392
13104S        S19908   4.600   7.397  39.825 -0.0786 -0.5296  0.3612
13105S        S19909   0.899   7.727  19.462  0.0113  0.4060  0.1058
13106S        S19910   0.663   3.055  26.765 -0.0337  0.4966  0.0053
13107S        S19911  10.180  11.904  15.455  0.3184 -0.1264 -0.0189
13108S        S19912   9.236   5.244  26.583  0.1308  0.0861 -0.6497
13109S        S19913   4.941   6.590  22.764 -0.1452 -0.0575 -0.0479
13110S        S19914   7.285   1.320  18.211  0.5919  0.4461 -0.0951
13111S        S19915   8.267   9.424  15.600  0.2125 -0.4441 -0.2393
13112S        S19916  12.074  11.886  31.218  0.2516  0.3940 -1.0236
13113S        S19917   7.739   7.907  15.022  0.0017  0.4755  0.1229
13114S        S19918  11.897   0.687  31.346 -0.1672  0.2976  0.6700
13115S        S19919   0.524   5.604  21.767 -0.3363 -0.0117 -0.1121
13116S        S19920   4.506   0.442  24.665  0.6209 -0.1960 -0.1094
13117S        S19921   5.276   3.244  11.901  0.2453 -0.6054  0.0252
13118S        S19922   5.356   0.425  13.208 -0.6538 -0.4334  0.5017
13119S        S19923   1.912   5.467  26.521  0.1504 -0.2275  0.0042
13120S        S19924   2.249   1.157  25.839 -0.3811  0.2062 -0.1656
13121S        S19925   8.621  10.529  23.769 -0.3897  0.3525  0.4229
13122S        S19926   3.734  10.595  23.410  0.4328 -0.0972  0.3103
13123S        S19927   4.905   0.110  34.653  0.5453  0.1029 -0.0126
13124S        S19928   6.668   5.715  20.697  0.4311  0.5196 -0.4335
13125S        S19929   6.240  11.402  23.216 -0.2258  0.0689 -0.1839
13126S        S19930   7.454   6.456  12.041  0.1223 -0.6914 -0.3861
13127S        S19931   9.040   1.560  26.960  0.4194  0.1470  0.1815
13128S        S19932   9.468   9.874  13.530 -0.4451 -0.0118  0.0757
13129S        S19933   7.738  10.251  19.127 -0.1390  0.0513  0.3052
13130S        S19934   8.176   6.615  11.607 -0.1812  0.1887 -0.3222
13131S        S19935   9.171   2.993  19.751  0.3232 -0.0477  0.2071
13132S        S19936   9.090   3.866  27.007 -0.0672 -0.3371 -0.0290
13133S        S19937   8.886   5.357  30.358 -0.1542 -0.4950 -0.0071
13134S        S19938   9.663   6.627  31.849  0.0522 -0.0160  0.2105
13135S        S19939   6.032  11.284  15.736 -0.0611  0.1447 -0.4248
13136S        S19940   7.898   3.183  39.703  0.0558  0.1352  0.3505
13137S        S19941   5.868   0.953  29.777 -0.1373 -0.2947 -0.0425
13138S        S19942   9.609   1.484  30.810  0.0341 -0.2004  0.4114
13139S        S19943  10.366   0.712  16.085 -0.2035 -0.4221  0.5098
13140S        S19944   2.311   5.149  28.451 -0.2418  0.2369  0.7308
13141S        S19945   1.642   1.982  24.804 -0.1713 -0.3061 -0.2861
13142S        S19946  11.461   1.181  24.099 -0.0499 -0.2083  0.4028
13143S        S19947   5.989   2.770  44.955 -0.2117 -0.4338  0.3066
13144S        S19948   3.880   1.386  16.256  0.3948  0.2150  0.0727
13145S        S19949   4.157   2.855  15.046 -0.4905  0.1453  0.1437
13146S        S19950  10.061   9.239  17.007 -0.1991  0.2223  0.2765
13147S        S19951  10.994   7.281  18.283 -0.1783 -0.1938 -0.1069
13148S        S19952   5.576  11.148  28.801 -0.0405  0.8510 -0.4242
13149S        S19953   6.348  11.352  12.399  0.0853 -0.1711 -0.0263
13150S        S19954  10.237   4.424  24.263  0.4865 -0.1697 -0.4975
13151S        S19955   2.468   2.106  14.935  0.0977  0.3348 -0.9397
13152S        S19956   5.994  11.900  20.413  0.2153 -0.2254  0.0272
13153S        S19957   5.180   8.557  25.271 -0.7667 -0.2136  0.1126
13154S        S19958   6.527   5.487  31.153  0.2076  0.2108 -0.3466
13155S        S19959   9.382   3.266  26.294 -0.0437  0.4503  0.2220
13156S        S19960   3.541   1.086  20.368  0.5033  0.1017  0.2149
13157S        S19961   1.871   3.325  27.250 -0.1734  0.4398  0.2898
13158S        S19962   9.293  10.000  24.826  0.2878  0.1339  0.1223
13159S        S19963   6.812   7.128  20.538  0.3496 -0.1702 -0.1006
13160S        S19964   5.757   8.976   1.784  0.2669  0.1709  0.1883
13161S        S19965   1.088   0.164  12.597  0.0000  0.1849 -0.0173
13162S        S19966   3.519   5.468  24.597  0.1409  0.0294 -0.3961
13163S        S19967   8.544   4.942  26.844  0.4097 -0.4204 -0.1090
13164S        S19968   4.464  10.437  11.808  0.0967 -0.2161  0.4731
13165S        S19969  11.455   3.499  20.744  0.2117  0.2013  0.1097
13166S        S19970   9.550   2.206  29.630  1.0825  0.0778 -0.3254
13167S        S19971  11.568   5.585  29.634  0.2228 -0.6408  0.3543
13168S        S19972   0.475   9.176  43.703  0.1211 -0.3146  0.1521
13169S        S19973  11.428   1.287  19.206 -0.4977 -0.6076  0.2775
13170S        S19974  11.036   2.797  14.788  0.0331 -0.4629 -0.1815
13171S        S19975   9.136   9.638  11.956  0.1047 -0.2544  0.2231
13172S        S19976   7.960   0.276  15.423 -0.2150 -0.4087  0.6392
13173S        S19977   8.828   3.817  17.943 -0.2263  0.3785 -0.0181
13174S        S19978   4.561   6.771   9.376 -0.6653 -0.2883 -0.4249
13175S        S19979  10.210   3.659  12.347 -0.0656 -0.0275 -0.2635
13176S        S19980  11.539  12.322  26.073  0.0455 -0.3001  0.3667
13177S        S19981   9.248   1.290  14.510 -0.4530  0.4233 -0.3196
13178S        S19982  10.206   3.301  19.808 -0.5180  0.1117 -0.5403
13179S        S19983  10.957   3.116  30.045  0.2743 -0.3031  0.0831
13180S        S19984   8.578   9.750  14.617  0.2008  0.0681  0.3370
13181S        S19985  12.044   6.793  21.807  0.7033 -0.3956 -0.3045
13182S        S19986   7.626   6.186  16.376  0.2536 -0.3168 -0.0929
13183S        S19987   9.067   0.435  17.021  0.3796  0.3362 -0.0124
13184S        S19988   9.640   5.414  15.353 -0.2396 -0.5100  0.3030
13185S        S19989  12.261   2.304  15.245  0.0282  0.2924  0.1333
13186S        S19990   7.913   8.923  29.012 -0.5806 -0.0834 -0.5457
13187S        S19991   7.219   2.003  29.815 -0.3266 -0.3260  0.2130
13188S        S19992   6.824   5.697  16.449  0.0720 -0.1162 -0.3592
13189S        S19993  10.605   3.565  13.254 -0.0418 -0.1394 -0.1263
13190S        S19994   5.396   6.633  30.770 -0.1104  0.1066  0.1166
13191S        S19995   7.494  10.163  12.570  0.0387 -0.4796 -0.5062
13192S        S19996  10.135   2.021  16.495  0.1595  0.5275  0.3078
13193S        S19997   5.825   4.339  21.899 -0.4915 -0.4555 -0.3421
13194S        S19998  10.730   0.637  19.333 -0.0017  0.1314  0.2179
13195S        S19999   1.537   2.088  18.173 -0.4251 -0.1197 -0.4880
13196S        S20000   6.025   1.544  18.389  0.1968  0.2798  0.0496
13197S        S20001  10.044   4.717  25.017  0.8484  0.1637 -0.1045
13198S        S20002   2.565   7.498  17.734  0.1146 -0.2613 -0.1684
13199S        S20003   3.411  11.360  13.594  0.2003  0.0713 -0.1998
13200S        S20004   2.802   9.860  31.812  0.5998 -0.2072  0.3163
13201S        S20005  10.604   2.815  30.280  0.1734  0.0829  0.6258
13202S        S20006   9.152   2.883  30.300 -0.0926 -0.0728  0.2038
13203S        S20007   7.791  12.158  23.944 -0.4072 -0.1082 -0.3688
13204S        S20008   7.870  11.109  21.848  0.4612 -0.3040 -0.7610
13205S        S20009   2.733   1.945  17.835 -0.0554 -0.0784 -0.2592
13206S        S20010   5.390   0.213  11.388  0.1343 -0.6060 -0.2345
13207S        S20011   8.895  12.080  14.516 -0.1198  0.4861 -0.6028
13208S        S20012   2.181   8.426  27.940 -0.8473  0.4735  0.2490
13209S        S20013   3.622  10.088  10.998 -0.5720  0.8950  0.2831
13210S        S20014   0.136   1.784  20.555  0.0087 -0.1791  0.0260
13211S        S20015   0.418   6.967  23.507  0.1841 -0.5631 -0.0076
13212S        S20016   6.380   6.004  30.200 -0.2219 -0.5526 -0.2395
13213S        S20017   1.703   8.333  15.162 -0.5397 -0.0711  0.2373
13214S        S20018  12.357   8.701  19.425  0.0498 -0.3294 -0.9147
13215S        S20019   5.051  11.188  12.104  0.0794 -0.0372 -0.4771
13216S        S20020   6.752  10.586  29.838 -0.1826  0.7605  0.1614
13217S        S20021  12.183   2.960  16.760  0.5485 -0.2639 -0.2058
13218S        S20022   0.680   0.154  23.229  0.2031  0.5431  0.2668
13219S        S20023  10.454   3.271  17.469  0.3567  0.1233  0.0329
13220S        S20024   8.129   5.827  23.251  0.6468 -0.4028 -0.0588
13221S        S20025   3.120   7.007  30.110 -0.2215 -0.0274 -0.0851
13222S        S20026   9.880  11.847  13.239  0.2923 -0.5654 -0.0474
13223S        S20027   4.287   8.536  26.650  0.3565 -0.3333  0.7014
13224S        S20028   1.784  11.774  20.180  0.1095  0.4865  0.2807
13225S        S20029   8.564   7.848   9.823 -0.2723  0.3588  0.1076
13226S        S20030   0.564  11.198  19.169 -0.2967 -0.2916  0.4927
13227S        S20031   9.479   5.279  14.292  0.2414  0.2302 -0.2599
13228S        S20032   7.796   1.385  18.417 -0.1431 -0.0288  0.0807
13229S        S20033   7.623   1.057  39.769 -0.3386  0.0772 -0.1733
13230S        S20034   8.002   8.827  21.187  0.1651 -0.2708  0.0934
13231S        S20035   8.235   9.340  20.801  0.1755 -0.1044 -0.2303
13232S        S20036   7.185   5.337  13.130 -0.5469 -0.0327  0.5721
13233S        S20037   9.095   6.578  16.893  0.0226 -0.1760  0.3695
13234S        S20038   1.076   7.960  18.799  0.2874 -0.1733  0.1560
13235S        S20039   8.304   1.873  25.229 -0.0765  0.4223  0.1442
13236S        S20040   9.383   5.703  27.866  0.3758 -0.2703 -0.5417
13237S        S20041   1.156   1.573  32.473  0.5895 -0.8299 -0.3997
13238S        S20042   7.418   5.722  16.201  0.0502 -0.2884  0.1983
13239S        S20043   3.790   7.372  12.774  0.1471 -0.1706  0.1672
13240S        S20044   3.329   9.451  29.825 -0.4031 -0.3855 -0.1597
13241S        S20045   2.601   3.967  18.616 -0.1362 -0.0803  0.0745
13242S        S20046  10.023   8.022  30.632 -0.3296  0.4023 -0.3192
13243S        S20047   6.738   9.761  18.391 -0.3158 -0.0170  0.0811
13244S        S20048  11.896   8.059  15.406 -0.0284  0.3700 -0.1212
13245S        S20049   1.792   6.032  22.260 -0.1764  0.3451 -0.0011
13246S        S20050  11.690   8.055  18.992  0.0948 -0.0141 -0.3446
13247S        S20051   0.610   1.336  29.816 -0.4789  0.2500 -0.0481
13248S        S20052  10.620   2.470  18.449  0.8731  0.0694 -0.1624
13249S        S20053   3.741   2.638  23.369 -0.1786  0.0406  0.1949
13250S        S20054   1.564  10.151  22.853  0.1628  0.3685  0.6453
13251S        S20055   1.390  11.920  12.012 -0.0040  0.4602  0.5274
13252S        S20056   3.198  11.695  20.737 -0.4913  0.1290  0.3406
13253S        S20057   8.430   8.296  11.685 -0.0726 -0.4611  0.5141
13254S        S20058   1.152   8.567  26.979  0.0346  0.2745 -0.1387
13255S        S20059   5.348   0.687  22.610 -0.4017 -0.8604 -0.1375
13256S        S20060  10.703   3.045  23.913  0.0536  0.5446 -0.5759
13257S        S20061   4.287  10.659  24.689  0.3171 -0.4730 -0.4634
13258S        S20062   9.255   4.851  30.735  0.2753 -0.1750 -0.4662
13259S        S20063  10.373   6.364  17.829 -0.3800  0.4651 -0.4749
13260S        S20064   7.831  12.351  28.065 -0.4199 -0.0992  0.4439
13261S        S20065   9.012   4.182  28.068  0.7981 -0.3415 -0.2671
13262S        S20066   4.539  12.254  10.854  0.2130  0.1538 -0.1618
13263S        S20067  11.506   6.949  14.536 -0.2057  0.6242 -0.2071
13264S        S20068  10.552   7.510  29.503 -0.0539 -0.7615  0.3016
13265S        S20069   1.763   1.929   1.955  0.3326  0.1386  0.4620
13266S        S20070   4.958  12.342  20.924  0.3245  0.2143  0.1470
13267S        S20071   5.199   3.081  25.146 -0.2792  0.1885  0.1003
13268S        S20072  11.552   7.616  29.122 -0.6515 -0.5866  0.5135
13269S        S20073   3.968   2.381  15.822 -0.3454 -0.3413  0.0471
13270S        S20074   9.221   8.710  28.727 -0.4836  0.1837  0.1542
13271S        S20075   3.052  10.382  27.523 -0.6497  0.2812  0.0071
13272S        S20076   4.129   8.085  24.534  0.0566 -0.0102 -0.0324
13273S        S20077   3.873  11.814  13.280 -0.2593 -0.5042  0.4715
13274S        S20078   9.746   8.423  27.772  0.1653 -0.3827  0.5292
13275S        S20079   9.921   1.694  18.235  0.4881  0.4677 -0.8186
13276S        S20080   7.269   4.519  18.624  0.0392  0.0605 -0.2887
13277S        S20081   8.867   8.558  19.681 -0.2726  0.4120  0.5436
13278S        S20082   8.210   6.127  18.866  0.2896 -0.6701 -0.1662
13279S        S20083   6.940   9.868  12.683 -0.1280 -0.1912  0.1809
13280S        S20084  10.459   6.867  15.707  0.3330  0.3789 -0.3310
13281S        S20085   5.499   4.233  27.931  0.3993  0.0989  0.9550
13282S        S20086   7.018   0.347  11.809  0.3050  0.1348  0.0442
13283S        S20087  11.077   9.355  19.677 -0.5277  0.1688 -0.0562
13284S        S20088   0.512   2.010  25.525  0.1979 -0.5621 -0.1027
13285S        S20089   7.050   4.565  17.797  0.0885  0.3223  0.2834
13286S        S20090   9.582   7.833  26.916  0.5098 -0.3478 -0.4203
13287S        S20091   8.701   7.895  20.400 -0.0033  0.2141 -0.0002
13288S        S20092  11.114   5.385  29.665  0.7527 -0.3282 -0.1418
13289S        S20093   3.579   1.027  15.446  0.4389  0.3071 -0.4748
13290S        S20094   1.813   0.250  18.305  0.0474 -0.0718 -0.0688
13291S        S20095   0.642   7.812  22.896 -0.0404  0.3008  0.3569
13292S        S20096   0.738   3.416  12.969 -0.1982 -0.2662 -0.0274
13293S        S20097   3.638   9.731  19.120  0.0853  0.1063 -0.0797
13294S        S20098   3.318   4.136  19.779  0.5583 -0.3457 -0.1956
13295S        S20099   9.377   0.778  18.526  0.0616  0.0784  0.2938
13296S        S20100   4.482   8.584  30.886 -0.1954  0.6589  0.0049
13297S        S20101   9.544   1.020  28.407 -0.4503  0.0164  0.8130
13298S        S20102   9.535   8.927  11.932 -0.4339 -0.2470 -0.2848
13299S        S20103   6.678   6.848  23.596  0.0408  0.2116 -0.0992
13300S        S20104   8.842  10.183  23.393 -0.3263 -0.6540 -0.1180
13301S        S20105   9.922   0.842  28.800 -0.1288  0.0637 -0.3519
13302S        S20106   8.814  11.725  11.469 -0.0158  0.0791  0.4789
13303S        S20107  12.358   6.047  14.416 -0.2210  0.0285  0.2622
13304S        S20108   5.143   8.308  31.445  0.3360 -0.0254  0.3060
13305S        S20109   2.908   4.038  16.716  0.1404 -0.1615  0.3250
13306S        S20110   0.847   2.848  29.606 -0.0454  0.4448 -0.5317
13307S        S20111  11.024  10.822  20.894  0.2164  0.4467  0.7350
13308S        S20112  10.810   0.151  18.385 -0.2435  0.0573 -0.0368
13309S        S20113   4.433  11.727  27.020 -0.1136  0.1611 -0.1729
13310S        S20114  10.140   4.065  22.441  0.3211  0.3516 -0.1642
13311S        S20115   4.752   7.462  31.314 -0.2546  0.0919 -0.2435
13312S        S20116   2.813   6.787  15.899 -0.1224 -0.1578 -0.1375
13313S        S20117   5.510   0.229  16.012  0.4551  0.6558 -0.3406
13314S        S20118   6.750   0.104  29.907 -0.0612  0.0515  0.1137
13315S        S20119   0.959   6.631  30.319 -0.3524  0.3190  0.6764
13316S        S20120   8.831   9.339  11.571  0.3423 -0.2795  0.0974
13317S        S20121   4.117   3.229  14.725  0.0497  0.1412  0.1179
13318S        S20122   7.928  10.671  15.861  0.0182 -0.2107 -0.6248
13319S        S20123   4.254  11.614  27.522  0.3150 -0.3684  0.4975
13320S        S20124   4.057   1.368  14.515 -0.0922  0.1473  0.1217
13321S        S20125   8.216   0.086  23.985  0.3437  0.2082 -0.4640
13322S        S20126   9.322   6.437  22.384  0.6598 -0.2138 -0.2838
13323S        S20127  11.293   2.860  24.576  0.2772  0.1577  0.0712
13324S        S20128   2.477  11.364  26.549  0.0553  0.4514  0.3093
13325S        S20129   2.268   6.205  12.866 -0.0326  0.1254  0.4358
13326S        S20130   0.833  12.331  21.271 -0.8799 -0.1032  0.1401
13327S        S20131   7.407   9.688  26.482  0.4580 -0.1031  0.6450
13328S        S20132   8.712   6.938  17.852  0.0419  0.1330 -0.3243
13329S        S20133  12.111   0.522  24.778 -0.0049  0.2880 -0.4651
13330S        S20134   5.180  11.004  23.896 -0.2143 -0.4275 -0.3280
13331S        S20135   5.698   7.351  11.443  0.2002 -0.4001  0.2114
13332S        S20136  12.342   9.037  18.789 -0.1229  0.3228  0.1156
13333S        S20137   9.010  11.556  22.778 -0.0325 -0.3513  0.0806
13334S        S20138   2.019   7.439  20.624  0.0608 -0.3710  0.3947
13335S        S20139   5.439   8.113  27.061 -0.3022 -0.3434 -0.4253
13336S        S20140   7.521   6.510  21.754  0.3550  0.1859  0.1855
13337S        S20141   3.458  10.780  20.030  0.1332  0.1629  0.1360
13338S        S20142   6.164   0.929  17.029  0.2253 -0.6494  0.0330
13339S        S20143   7.304   4.894  18.286 -0.2030 -0.1790 -0.3553
13340S        S20144  12.158   4.990  23.221  0.7577 -0.1426 -0.2223
13341S        S20145   9.521   9.467  16.801  0.3601  0.1537 -0.1069
13342S        S20146   0.000  11.402  17.150 -0.0262  0.3008 -0.1309
13343S        S20147   8.920   1.008  27.130  0.2183  0.6774  0.4838
13344S        S20148   6.068   8.811  13.041 -0.3273 -0.0969  0.1449
13345S        S20149  10.243   5.958  11.063 -0.0214  0.6532  0.0631
13346S        S20150   0.983   0.241  15.929 -0.2341  0.3521  0.0217
13347S        S20151   5.985   8.822  15.848  0.0246  0.3006 -0.3404
13348S        S20152   5.943  10.960  13.166  0.0794 -0.3590 -0.0282
13349S        S20153   6.548   1.208  13.200  0.3457 -0.2217  0.0352
13350S        S20154   9.014   9.988  14.497  0.1495 -0.1146  0.0740
13351S        S20155   2.187   8.226  25.796 -0.8398 -0.0730  0.0597
13352S        S20156  10.214   3.332  26.864  0.1952 -0.2613  0.0184
13353S        S20157   6.235   4.471  14.841 -0.1214 -0.1229 -0.3726
13354S        S20158   1.849   7.504  22.073 -0.5487  0.2735 -0.5712
13355S        S20159   7.044   9.491  25.502  0.2094  0.3442 -0.0857
13356S        S20160   1.070   9.011  27.102 -0.2033 -0.6202  0.0203
13357S        S20161   5.196   6.252  23.708  0.2272 -0.2616  0.1922
13358S        S20162   3.089   6.692  19.806  0.2288 -0.0345 -0.2591
13359S        S20163   6.217   8.060  11.823  0.2663  0.1821 -0.5263
13360S        S20164   4.047  11.377  31.130 -0.2493  0.6565 -0.1971
13361S        S20165   6.705  11.380  21.535 -0.1543 -0.2845 -0.2700
13362S        S20166   8.418  11.221  26.698 -0.2710 -0.0754 -0.0276
13363S        S20167   8.625   3.592  31.300 -0.4401 -1.0185 -0.2595
13364S        S20168   2.504   4.936  27.034 -0.3283 -0.2907 -0.5490
13365S        S20169   9.023   2.269  12.591 -0.3721  0.1720  0.2822
13366S        S20170   5.475  11.924  20.075 -0.4879 -0.1036 -0.2953
13367S        S20171   5.800   7.899  19.889 -0.0021 -0.3697 -0.0689
13368S        S20172   8.982   3.185  25.170 -0.4594  0.4493  0.2793
13369S        S20173   7.921   8.778  27.289 -0.2369  0.0587 -0.0783
13370S        S20174   7.045   7.375  18.253  0.3169 -0.8241  0.0301
13371S        S20175   0.581   9.377  29.741  0.5813 -0.4695  0.3618
13372S        S20176   9.406   5.675  11.109 -0.0331 -0.2211  0.0652
13373S        S20177   6.716   1.311  29.509  0.2696  0.0535 -0.0711
13374S        S20178   5.432  11.921  28.188  0.5455  0.1169  0.4585
13375S        S20179   9.998   4.599  21.751  0.3997 -0.5326 -0.6547
13376S        S20180   0.688   9.188  10.995  0.2289 -0.3533 -0.7333
13377S        S20181   7.133  11.836  13.469 -0.1331 -0.4939 -0.1637
13378S        S20182   0.543   7.271   8.842  0.1492 -0.4826 -0.0138
13379S        S20183   8.478   8.250  22.124  0.3759 -0.3072 -0.0593
13380S        S20184   1.451   6.140  15.411  0.0854 -0.3864 -0.0744
13381S        S20185   7.408   1.461  13.748  0.0691  0.0386 -0.3770
13382S        S20186   7.020   0.734  31.670  0.1439  0.7909  0.0895
13383S        S20187  12.155  11.868  19.020 -0.1141 -0.0496  0.0039
13384S        S20188  10.745   3.848  17.408  0.1063 -0.2361 -0.1793
13385S        S20189   0.205   9.775  23.291 -0.0526 -0.3606  0.1666
13386S        S20190  10.395   2.363  23.007  0.5142  0.2258 -0.4619
13387S        S20191   3.535   0.123  24.794 -0.1908 -0.2101 -0.0755
13388S        S20192   3.422   2.876  18.187 -0.1499 -0.2412  0.4025
13389S        S20193   3.723   1.515  48.676 -0.4475 -0.2225  0.3623
13390S        S20194   1.108  11.607  18.268 -0.0357  0.2703  0.1487
13391S        S20195   1.504   6.627  23.969 -0.1116  0.4628  0.0742
13392S        S20196   1.448   6.626  24.505 -0.1405 -0.1693 -1.0812
13393S        S20197   4.781   5.398  13.036 -0.3352 -0.0044 -0.2855
13394S        S20198   9.336   9.327  25.980  0.2269 -0.5173  0.7580
13395S        S20199  11.494  12.047  30.138  0.4843  0.2649  0.1316
13396S        S20200   6.641   8.475  27.280  0.2292 -0.2512  0.1920
13397S        S20201   4.364   8.155  27.743 -0.3228 -0.0665  0.3865
13398S        S20202   4.532   1.521  23.453 -0.3314 -0.6919  0.1602
13399S        S20203   5.959   4.340  18.237 -0.4028  0.1435 -0.4437
13400S        S20204   5.982   8.477  19.552  0.2294 -0.3098 -0.3050
13401S        S20205   5.140   4.759  17.352  0.1035  0.3277 -0.1426
13402S        S20206  10.566   4.268  21.322 -0.0870 -0.4380 -0.3137
13403S        S20207   4.554   9.818   8.914  0.2458 -0.4217  0.1134
13404S        S20208   1.620   8.575  26.328 -0.2153 -0.1071 -0.9969
13405S        S20209   8.846   1.104  29.108  0.2301  0.2609 -0.5070
13406S        S20210   8.951  10.570  19.866 -0.3564  0.2993  0.2925
13407S        S20211   3.599   7.367  21.478 -0.0496 -0.1027  0.2814
13408S        S20212   7.280   5.653  24.072 -0.1062  0.1256  0.2410
13409S        S20213  12.015   5.782  19.932  0.1570 -0.0727  0.0192
13410S        S20214  11.515   3.061  15.238 -0.1501 -0.0178  0.2950
13411S        S20215   8.242  10.955  14.561  0.1872 -0.0307 -0.0443
13412S        S20216   5.579  11.449  20.276 -0.2370  0.3466  0.3559
13413S        S20217   4.369   5.716  18.475 -0.2238  0.5175 -0.0052
13414S        S20218   9.729  10.894  24.399 -0.3484  0.4153  0.5520
13415S        S20219  10.601   7.423  13.597  0.0162  0.0752  0.1962
13416S        S20220   5.985   4.075  48.058 -0.0587  0.3668  0.1903
13417S        S20221   3.323   3.386  18.169  0.2682 -0.2013  0.4664
13418S        S20222   2.372  12.214  25.719  0.4347 -0.2706 -0.0577
13419S        S20223   3.439   3.879  28.381 -0.6373 -0.3287 -0.4369
13420S        S20224   7.779  10.058  13.024  0.0537  0.0808  0.2773
13421S        S20225   8.773   4.156  29.130  0.1235 -0.1999 -0.2798
13422S        S20226   3.594   1.456  29.233 -0.0896  0.0566  0.4564
13423S        S20227   2.086   3.245  16.863 -0.0464 -0.2236  0.0174
13424S        S20228  11.907   4.144  23.416 -0.1854  0.5496 -0.5683
13425S        S20229  10.325   1.840  29.546  0.1793  0.1462 -0.0161
13426S        S20230  11.815   2.865  30.453 -0.3758  0.2777  0.2577
13427S        S20231   3.029   2.560  22.855 -0.1319 -0.2201  0.1593
13428S        S20232   7.449   9.372  31.732 -0.0556  0.1180  0.1800
13429S        S20233   4.028   7.007  18.983 -0.2791  0.3033  0.2960
13430S        S20234   2.866   2.982  24.010 -0.2811  0.1679 -0.0816
13431S        S20235  10.882   2.346  28.638  0.0753 -0.1517  0.1205
13432S        S20236  11.466   1.194  32.046 -0.4775 -0.1526 -0.0765
13433S        S20237  12.305   9.876  31.480  0.0039  0.0268  0.0235
13434S        S20238   3.467   7.965  21.309 -0.0238 -0.0639  0.3325
13435S        S20239   3.190   7.871  12.163  0.2350 -0.3527 -0.1983
13436S        S20240   5.319   0.723  12.219 -0.1422  0.0501  0.6924
13437S        S20241   8.326   7.582  16.348  0.3117  0.5631  0.0479
13438S        S20242   4.951   2.236  17.391  0.3445 -0.1178 -0.0796
13439S        S20243  10.459   3.345  13.693  0.1527  0.0280  0.2091
13440S        S20244   8.234   4.799  21.458 -0.2645 -0.1114  0.0849
13441S        S20245   4.581   0.252  13.033 -0.2641  0.3963 -0.2942
13442S        S20246   4.214   2.715  24.369 -0.0450  0.0451 -0.5971
13443S        S20247   5.971  11.211  22.675 -0.0201  0.2043  0.2781
13444S        S20248   5.908   1.878  28.259 -0.6095  0.4317  0.2773
13445S        S20249   3.350   6.516  23.739  0.2166 -0.1383  0.5203
13446S        S20250   7.818   1.555  32.404  0.4989  0.3164 -0.4224
13447S        S20251   2.105   6.305  31.688  0.0100  0.1405  0.2600
13448S        S20252  10.481   5.857  14.905  0.4235 -0.0944 -0.1081
13449S        S20253   3.592   9.470  13.063  0.1088  0.2561 -0.0045
13450S        S20254   6.803   0.326  12.831 -0.3983 -0.1101 -0.1368
13451S        S20255   4.318   7.219   9.346 -0.5017 -0.2175 -0.0344
13452S        S20256   1.229   9.221  25.568 -0.3059  0.1597 -0.0616
13453S        S20257   0.703   4.319  24.161  0.0234  0.0030 -0.0337
13454S        S20258   1.464   6.699  26.090 -0.3125  0.0538 -0.0166
13455S        S20259   1.330   3.003  13.930 -0.5488  0.4496  0.3133
13456S        S20260   7.600  11.672  24.919 -0.5622 -0.1968 -0.3382
13457S        S20261   2.379   3.742  11.605  0.8645  0.2335 -0.2878
13458S        S20262   2.353   0.002  20.984 -0.1870 -0.5742  0.0823
13459S        S20263   6.169   7.816  11.407  0.1532 -0.4860  0.0589
13460S        S20264   9.217  10.959  24.570  0.0063  0.6152 -0.1227
13461S        S20265   4.966   5.525  16.327 -0.0822  0.0310 -0.2489
13462S        S20266   5.957  10.195   9.184  0.1797  0.0006  0.0570
13463S        S20267   4.289  11.123  20.904 -0.4342  0.2437 -0.2070
13464S        S20268  11.710   8.258  12.573  0.0774 -0.3490 -0.1022
13465S        S20269   9.824   4.565  26.415  0.0711 -0.0507 -0.0540
13466S        S20270   4.419   6.962  31.317  0.2071 -0.7816 -0.1552
13467S        S20271   5.454   5.026  28.825  0.3073 -0.3580 -0.2605
13468S        S20272   6.390  12.312  36.083 -0.3977 -0.2848  0.1035
13469S        S20273   7.963  10.521  13.718 -0.1147 -0.1091 -0.0066
13470S        S20274  11.025   3.388  12.797  0.1689 -0.5039  0.0050
13471S        S20275   7.356   2.914  31.113  0.0222 -0.2520  0.2705
13472S        S20276   6.823   0.972  21.262  0.0986  0.2171 -0.1868
13473S        S20277   4.110   9.819  26.203  0.1524  0.4727  0.6891
13474S        S20278   7.803   2.172  23.737 -0.1790  0.0353 -0.1546
13475S        S20279   5.002   1.483  12.946 -0.0851 -0.0545 -0.0358
13476S        S20280   5.235   4.512  24.602 -0.5274  0.2017 -0.3582
13477S        S20281  10.061   2.302  29.591  0.3899  0.3490  0.2932
13478S        S20282   9.351   0.403  20.544  0.2064  0.1933 -0.7441
13479S        S20283   5.690   9.746  23.706 -0.4606  0.2994 -0.0750
13480S        S20284   2.710   6.939  31.819 -0.4725  0.7294  0.3950
13481S        S20285  10.983   1.078  18.907  0.2206  0.3109  0.5047
13482S        S20286   6.857   2.263  13.092  0.2336 -0.4435 -0.3259
13483S        S20287  12.098  11.168  30.788 -0.2231  0.2693 -0.5357
13484S        S20288   7.602   6.538  15.490  0.1850 -0.2592  0.0333
13485S        S20289   9.648  10.508  32.898  0.2213 -0.2909 -0.6043
13486S        S20290   0.195   8.422  30.767 -0.5650  0.2470  0.2096
13487S        S20291   6.932  11.237  30.428  0.2794 -0.0530  0.1842
13488S        S20292   7.887   5.579  26.804 -0.2726  0.1907  0.0200
13489S        S20293   1.596  11.301  17.017  0.3652 -0.3740 -0.2723
13490S        S20294   9.163   8.620  18.055 -0.3800  0.1886  0.4064
13491S        S20295   4.297   8.116  12.790 -0.7420  0.3024  0.3987
13492S        S20296   1.567   5.667  23.928 -0.2171  1.2677 -0.3667
13493S        S20297   8.809   2.720  17.242  0.0588  0.0902  0.1105
13494S        S20298  10.456   2.090  41.461  0.1989 -0.2489  0.5084
13495S        S20299  11.299  10.146  17.918  0.1880 -0.6128  0.2752
13496S        S20300  11.850  10.997  24.441 -0.3676  0.1829 -0.2213
13497S        S20301  10.637   2.156  27.861  0.0989 -0.1221  0.5271
13498S        S20302   6.464   1.672  11.861  0.0285 -0.2605 -0.2390
13499S        S20303   5.154   7.453  11.526  0.1446  0.6530  0.1442
13500S        S20304   9.223   1.989  22.421 -0.3253 -0.0378 -0.4720
13501S        S20305  11.716   9.268  17.561 -0.4004 -0.0930 -0.4339
13502S        S20306   6.278  11.709  24.751 -0.4451 -0.1454 -0.3367
13503S        S20307   8.751   1.991  31.145  0.0964 -0.0324  0.4206
13504S        S20308  10.058   7.832  25.561  0.3314 -0.5257 -0.1378
13505S        S20309   4.348   4.847  16.843  0.2303 -0.2097  0.0402
13506S        S20310   4.751   9.432  27.109  0.0385  0.3725  0.1116
13507S        S20311   8.642   9.644  21.949  0.0245  0.0557 -0.4334
13508S        S20312   8.137  10.116  14.535 -0.2615  0.1273 -0.2556
13509S        S20313   9.403   3.091  25.426  0.2581  0.2043 -1.1732
13510S        S20314   1.552  12.345  20.562 -0.1877 -0.2345  0.1575
13511S        S20315   1.821   3.788  19.102 -0.4410  0.2674 -0.0123
13512S        S20316  11.770   3.892  13.339 -0.4239 -0.3458 -0.2320
13513S        S20317   4.954  10.122  14.890 -0.3374  0.1797 -0.0108
13514S        S20318   1.103   7.850  12.999  0.2033  0.0208 -0.0239
13515S        S20319   4.521   1.967  22.649 -0.6758 -0.3285 -0.1034
13516S        S20320   4.318   5.609  14.834 -0.3988  0.2270  0.2499
13517S        S20321   4.241   8.216  14.941 -0.4362  0.2841 -0.2077
13518S        S20322   1.619  10.957  29.194 -0.2394 -0.1302  0.3080
13519S        S20323   1.169   7.269  19.147 -0.5588  0.0677 -0.2155
13520S        S20324   9.688   5.976  28.347  0.7262 -0.0306 -0.1603
13521S        S20325   8.982   2.645   5.510  0.0715  0.2350  0.3554
13522S        S20326   2.883  12.025  21.665  0.1129  0.3128  0.0725
13523S        S20327   9.873   8.218  18.320 -0.0173  0.1455  0.0842
13524S        S20328   0.831   7.723  11.263  0.3707  0.3571 -0.0916
13525S        S20329   5.670   5.307  12.471 -0.0470 -0.1105 -0.2357
13526S        S20330  10.024   2.353  23.515 -0.4696 -0.0323  0.2163
13527S        S20331   8.953   2.610  27.067  0.3331 -0.0846  0.5436
13528S        S20332  10.253  10.681  14.321  0.1861  0.3606  0.4752
13529S        S20333   2.916  10.206  16.131  0.4283 -0.4069  0.2101
13530S        S20334   8.512  12.039  25.721  0.2652  0.5755 -0.7205
13531S        S20335   6.747  10.062  14.412 -0.2002  0.0656 -0.0277
13532S        S20336   6.794   6.361  21.210  0.4071  0.4042  0.1929
13533S        S20337  10.177  11.054  24.704 -0.1507  0.3370  1.1100
13534S        S20338  10.065   2.470  14.374  0.0003 -0.0191  0.0054
13535S        S20339   5.177   0.664  14.485 -0.4127  0.3375 -0.1636
13536S        S20340   8.990  10.517  15.476  0.0804  0.1469  0.0164
13537S        S20341   3.093   3.501  15.452 -0.0936 -0.3887  0.1289
13538S        S20342  10.953   4.855  19.556 -0.1381 -0.1408  0.4332
13539S        S20343   6.056   8.291  21.774 -0.1639 -0.0307 -0.5223
13540S        S20344   0.794   0.793  24.093  0.5205 -0.1694  0.4870
13541S        S20345   9.849   1.111  17.323 -0.0938 -0.1089  0.4911
13542S        S20346  10.877   4.327  25.255 -0.2296 -0.3769  0.4947
13543S        S20347   8.930   4.595  11.801  0.1084  0.0608  0.0573
13544S        S20348   0.259  12.001  21.179 -0.3968 -0.0795  0.0782
13545S        S20349   1.245  11.843  21.165  0.0617 -0.3662  0.2096
13546S        S20350   4.859   2.022  23.046  0.4053  0.1519 -0.1019
13547S        S20351   4.808  10.180   9.351  0.2312 -0.0020  0.1586
13548S        S20352   9.013   8.003  21.645 -0.8628 -0.2690 -0.6603
13549S        S20353   2.255   5.779  18.968  0.3362 -0.0998  0.1250
13550S        S20354   9.043   7.199  30.123  0.0961 -0.2435  0.1138
13551S        S20355   4.348   1.183  16.080 -0.0068  0.1855 -0.0695
13552S        S20356   4.510   4.422  24.924  0.1344 -0.6279  0.3754
13553S        S20357   1.514  12.306  12.466  0.2405 -0.2088  0.7509
13554S        S20358   4.770  11.804  22.547  0.6055 -0.1257  0.2781
13555S        S20359   1.644   3.328  20.229 -0.1642  0.3318  0.0625
13556S        S20360  11.373   8.086  23.527  0.2214  0.0522  0.0850
13557S        S20361   6.656   6.572  24.321 -0.1493  0.1525 -0.0163
13558S        S20362   7.501  11.648  22.255  0.1499  0.3928 -0.0407
13559S        S20363   7.810  10.461  26.831 -0.0109 -0.4433  0.1475
13560S        S20364   3.876   7.511  16.577 -0.5764 -0.4946 -0.2832
13561S        S20365   0.520   2.037  26.169  0.2387  0.3099  0.0331
13562S        S20366  11.363   5.066  25.186  0.5435  0.4166  0.1872
13563S        S20367   2.295  11.218  29.156  0.4905  0.3421  0.4132
13564S        S20368   7.061   9.749  16.312  0.2637  0.3131 -0.3581
13565S        S20369   3.463   0.264  14.843 -0.3243 -0.1361 -0.4008
13566S        S20370  12.117   4.940  29.028  0.4080 -0.2740 -0.3112
13567S        S20371   4.294  10.929  26.070 -0.4121  0.3762  0.4188
13568S        S20372  11.067   4.664  27.949  0.5643 -0.5575  0.2680
13569S        S20373   7.358   2.998  14.820  0.4900 -0.3214  0.4117
13570S        S20374   3.521   9.950  12.120  0.2008  0.0491  0.6611
13571S        S20375   9.030   7.978  14.657 -0.7881  0.5125 -0.1118
13572S        S20376   2.724   8.659  28.752  0.5158  0.0202 -0.2355
13573S        S20377   0.734   5.477  13.451  0.5727 -0.0719 -0.4361
13574S        S20378   4.037   3.398  17.368  0.4941 -0.1802  0.2517
13575S        S20379   3.857   6.572  34.330 -0.0325 -0.1884  0.2138
13576S        S20380   2.351   2.378  15.332  0.3014 -0.0170 -0.0051
13577S        S20381   8.552   2.533  19.175  0.0592  0.2119 -0.3507
13578S        S20382   4.406   2.109  18.820  0.0588 -0.3751  0.5016
13579S        S20383   6.447  11.046  12.963  0.1047  0.3401  0.4828
13580S        S20384   3.796   7.165   9.413  0.0035  0.1856  0.2517
13581S        S20385  10.760   8.202  26.853 -0.4993  0.0068 -0.5498
13582S        S20386   6.558   2.615  10.012  0.1748  0.1443  0.3296
13583S        S20387   8.862  10.390  29.703  0.2111  0.4477  0.6210
13584S        S20388   4.659   7.699  12.974 -0.0775 -0.3998 -0.3922
13585S        S20389   5.699   4.025  17.168  0.3758 -0.0124 -0.0885
13586S        S20390   7.214   5.051  45.708 -0.2555  0.3120  0.2657
13587S        S20391   9.311   5.604  13.577  0.0090 -0.2909 -0.1520
13588S        S20392   9.102   5.436  21.252 -0.1501  0.3766  0.1783
13589S        S20393   5.571   1.406  22.657  0.2245 -0.2199 -0.2558
13590S        S20394   3.920  10.506  17.542  0.2071  0.5035  0.1581
13591S        S20395  11.323   3.442  25.180 -0.1077 -0.5945 -0.5555
13592S        S20396  10.827   4.423  30.637  0.5847  0.1621  0.1965
13593S        S20397   9.066   5.518  11.983 -0.1046  0.3650  0.4795
13594S        S20398  11.135   4.037  30.952  0.0016  0.2191  0.5157
13595S        S20399   5.199   8.393  16.092 -0.2670 -0.2302  0.2265
13596S        S20400   5.559   1.581  25.007 -0.5768 -0.5087 -0.4461
13597S        S20401   0.041  10.970  25.000  0.3228  0.0540  0.1007
13598S        S20402   0.665   9.072  14.936 -0.0264  0.3800  0.4600
13599S        S20403   0.609   7.186   9.377 -0.2827  0.2923 -0.0664
13600S        S20404   8.264   7.769  18.504  0.5120  0.1075 -0.0276
13601S        S20405   4.995  11.518  17.904  0.2134  0.2821  0.4304
13602S        S20406  11.216   6.364  19.378  0.2761  0.0032 -0.0001
13603S        S20407   8.051   1.483  29.260 -0.1645  0.4162  0.8456
13604S        S20408   4.623  11.537  19.087 -0.5219 -0.1646  0.0353
13605S        S20409   4.767   1.899  16.385 -0.3386 -0.2198  0.0540
13606S        S20410   5.023   6.575   9.198 -0.3208  0.3428  0.1525
13607S        S20411  11.250   0.529  14.915  0.0167 -0.4243  0.2728
13608S        S20412   8.175  12.226  11.440  0.0071 -0.1212 -0.2022
13609S        S20413   9.903   3.052  25.421 -0.4275 -0.1360 -0.2786
13610S        S20414   0.436  11.098  15.876 -0.2192  0.1566 -0.3148
13611S        S20415   3.700   7.529  31.811  0.2188  0.3827  0.1941
13612S        S20416   6.330   5.537  19.478  0.2642 -0.0443 -0.3258
13613S        S20417   9.922   6.015  13.722  0.3783 -0.0485  0.4092
13614S        S20418   6.862  12.173  12.540 -0.3290 -0.3873 -0.7315
13615S        S20419   1.637  11.994  30.854  0.2393  0.2351  0.5796
13616S        S20420  12.108   2.622  11.258 -0.1176 -0.0912  0.0969
13617S        S20421   7.820  11.488  24.494 -0.2007  0.0146  0.1922
13618S        S20422  11.403   8.892  15.675 -0.2665  0.3412  0.1840
13619S        S20423   3.800   0.523  26.892 -0.7146 -0.2184  0.6888
13620S        S20424   5.613   4.079  14.428 -0.1827  0.2719  0.6274
13621S        S20425   5.312   4.345  25.749  0.0632 -0.0253  0.2672
13622S        S20426  11.936  11.560  16.885 -0.4540  0.3306  0.4115
13623S        S20427   7.118  12.101  13.924  0.0383  0.2564 -0.1718
13624S        S20428   0.050   6.377  21.708 -0.4379  0.2105 -0.2488
13625S        S20429   7.955   7.653  18.049 -0.3352 -0.3936  0.0769
13626S        S20430  12.223   3.794  22.543 -0.5859  0.0488  0.3568
13627S        S20431   3.666   5.149  28.978 -0.1007  0.4624  0.7429
13628S        S20432   5.058   8.603  18.418 -0.1255  0.2208  0.1653
13629S        S20433   4.500   4.325  16.624 -0.3859  0.1764 -0.2720
13630S        S20434  11.778   7.974  25.817  0.2491 -0.6307 -0.4022
13631S        S20435  12.111   7.685  13.124  0.0522  0.1506  0.2759
13632S        S20436   4.345   8.185  16.204  0.4296 -0.1281 -0.5596
13633S        S20437  11.209   0.364  26.269 -0.2433  0.1398  0.0882
13634S        S20438   6.261   7.725  15.208  0.1588  0.0095 -0.5617
13635S        S20439   4.144   1.753  17.921  0.0821 -0.0159  0.2991
13636S        S20440   3.286   3.482  24.786 -0.4857  0.1660 -0.3354
13637S        S20441   1.972  11.777  38.862  0.0027 -0.1384  0.3396
13638S        S20442   8.672   3.157   4.673 -0.0128  0.0275 -0.3910
13639S        S20443   5.521   9.365  30.011 -0.0048  0.2408 -0.6350
13640S        S20444   7.611   1.239  23.679  0.4167  0.0515  0.2049
13641S        S20445   5.692   1.618  17.623 -0.1091 -0.0366 -0.1851
13642S        S20446  10.287   5.027  15.260  0.1187  0.0651  0.4186
13643S        S20447   8.350   1.205  18.908  0.0029 -0.3543  0.1853
13644S        S20448   4.965   5.969  14.461 -0.3014  0.0594 -0.2718
13645S        S20449   6.969   9.649  14.530  0.0129 -0.6988 -0.3428
13646S        S20450   4.875  10.844  19.628 -0.0393 -0.3767  0.4243
13647S        S20451   5.598   3.831  12.124  0.1725 -0.0988  0.0795
13648S        S20452   0.177   1.445  17.170  0.7420 -0.2262  0.2691
13649S        S20453   5.676   1.479  15.443 -0.4750  0.6260 -0.4460
13650S        S20454   8.850   7.944  14.136  0.2446  0.1502 -0.0729
13651S        S20455  11.575  11.447  15.689 -0.2091  0.0204  0.0977
13652S        S20456   0.758   7.054  17.226  0.2875 -0.5362 -0.0281
13653S        S20457   6.860   3.809  15.130  0.2360  0.3923  0.6954
13654S        S20458  11.978   9.340  11.888 -0.1321  0.7369  0.1067
13655S        S20459   5.153   8.182  22.081 -0.0810 -0.0394 -0.4810
13656S        S20460   3.253   6.987  14.128  0.0235 -0.5258 -0.0095
13657S        S20461   4.343   3.868  17.273 -0.4575 -0.2677 -0.2781
13658S        S20462   0.686   0.976  22.843 -0.4353  0.0082 -0.3467
13659S        S20463   0.118   5.226  25.602  0.3870 -0.2380 -0.1142
13660S        S20464   0.109   4.173  21.775 -0.6452 -0.0394  0.0120
13661S        S20465  10.678   0.310  14.080  0.0245  0.3233 -0.2345
13662S        S20466   5.790   0.376  12.919 -0.1642 -0.1269  0.2346
13663S        S20467   9.031   5.803  31.079  0.2393 -0.9142 -0.1830
13664S        S20468   2.584   5.516  24.955  0.2438  0.0508 -0.5330
13665S        S20469   5.799   4.115  24.368 -0.2409  0.5636 -0.3957
13666S        S20470   2.616   9.525  29.254  0.2256  0.1294  0.0972
13667S        S20471   2.289   4.949  17.775 -0.2662  0.0152 -0.2878
13668S        S20472   8.598   1.994  23.452 -0.0157 -0.0746 -0.1136
13669S        S20473   5.160   3.630  24.395 -0.0627  0.1499 -0.0680
13670S        S20474  11.292   6.796  15.027  0.1635 -0.4980 -0.0467
13671S        S20475   6.746   8.078  11.770 -0.2194 -0.3520  0.2935
13672S        S20476   5.559   1.704  18.174 -0.1244  0.4098 -0.0157
13673S        S20477   0.535  11.195  17.043 -0.3041 -0.3557  0.3653
13674S        S20478   1.141   3.389  27.766  0.1290 -0.2046  0.0807
13675S        S20479  10.756   3.259  30.530  0.2082  0.6816 -0.3360
13676S        S20480   8.779   8.257  27.496  0.4897  0.2625 -0.2021
13677S        S20481   0.537   4.487  13.604  0.2243  0.0544  0.1083
13678S        S20482   9.206   0.453  12.255  0.2559 -0.2770  0.0217
13679S        S20483  11.658  10.214  18.197  0.0574 -0.0880  0.1387
13680S        S20484   2.046   8.853  24.277 -0.2184  0.0739 -0.6090
13681S        S20485   3.049  11.930  19.254  0.3854  0.4160 -0.4929
13682S        S20486   9.109   9.195  16.636 -0.2162  0.2434 -0.1840
13683S        S20487   0.502   4.180  32.355  0.5826 -0.2116 -0.8093
13684S        S20488   1.518   0.658  23.559 -0.3565  0.1930 -0.1244
13685S        S20489   6.745   3.079  11.812  0.0108 -0.1725  0.0535
13686S        S20490  10.852   7.062  24.976  0.4120  0.1073 -0.1878
13687S        S20491   2.976   3.733  12.386 -0.3374  0.4730  0.2255
13688S        S20492   2.399  12.239  21.533  0.1240 -0.3121 -0.1190
13689S        S20493   4.355   6.215  13.501  0.3978  0.2733 -0.2264
13690S        S20494  10.655  11.151  21.851  0.2530 -0.0108 -0.1189
13691S        S20495  11.524   1.484  28.601 -0.5418 -0.1097 -0.0848
13692S        S20496   6.308  10.340  17.653 -0.0244 -0.3329  0.3073
13693S        S20497   9.514   5.940  24.812  0.3428  0.4027 -0.1172
13694S        S20498   6.207   4.010  13.466  0.3852  0.4233  0.3824
13695S        S20499   8.021  11.477  22.171  0.3770  0.3502 -0.0080
13696S        S20500  11.547   8.710  16.611  0.7128  0.0386 -0.3299
13697S        S20501   8.239   2.353  10.534 -0.2033 -0.2734  0.3818
13698S        S20502   1.440  11.849  20.642 -0.1544 -0.3416 -0.1116
13699S        S20503   1.106   8.154  11.136 -0.1873 -0.3415  0.1010
13700S        S20504   5.443   2.100  19.513  0.0275  0.3243  0.3095
13701S        S20505  10.760   9.081  31.344  0.1911 -0.1142  0.5032
13702S        S20506   9.609   9.166  13.006  0.1688  0.1710  0.5482
13703S        S20507   8.278  10.265  29.839  0.1068  0.2417 -0.5983
13704S        S20508   8.309   3.252  26.132  0.5564  0.1321  0.3992
13705S        S20509   5.217   3.765  15.649 -0.2596  0.1210 -0.1432
13706S        S20510   6.200  11.578  13.842 -0.3848 -0.0955  0.2343
13707S        S20511   7.066  12.026  23.112 -0.3494  0.5238 -0.2017
13708S        S20512   6.152  11.835  17.362  0.4816  0.0792  0.2896
13709S        S20513   5.361   8.130  18.333 -0.4262 -0.0161 -0.2172
13710S        S20514  12.125   3.637  29.134 -0.2027  0.2249  0.2116
13711S        S20515   7.066   5.337  30.065 -0.1990  0.0763  0.4713
13712S        S20516   9.999   4.192  26.716  0.2863  0.1308 -0.2679
13713S        S20517   1.520   9.266  12.450  0.2753  0.2209  0.3245
13714S        S20518  11.716  11.579  28.079 -0.0274  0.9824  0.1148
13715S        S20519  11.961   5.995  23.740  1.1217 -0.0480  0.2359
13716S        S20520   9.009   8.968  19.444  0.3956 -0.2856 -0.0048
13717S        S20521   5.419   5.739  19.108  0.0465  0.3614 -0.1912
13718S        S20522   4.300   1.550  24.132 -0.4404  0.0845 -0.4773
13719S        S20523   8.760   5.417  34.158  0.1610  0.4801  0.0031
13720S        S20524  10.596   7.936  22.323  0.4060  0.5293  0.1145
13721S        S20525   6.566   4.432  17.473 -0.0316 -0.0789 -0.2544
13722S        S20526  12.141  11.723   4.928  0.0299  0.1586 -0.0952
13723S        S20527   0.124   3.766  31.928 -0.4188 -0.1233  0.7509
13724S        S20528   4.294   1.762  16.155 -0.3589  0.2731 -0.1121
13725S        S20529   9.798   8.292  19.811  0.1009 -0.5694 -0.2026
13726S        S20530   7.882   9.565  15.278 -0.0214 -0.5722 -0.9164
13727S        S20531   5.903   2.816  15.558 -0.3055 -0.8834  0.0461
13728S        S20532   7.376   2.842  24.407  0.4262  0.4240  0.3224
13729S        S20533  12.154   8.638  15.945 -0.7837 -0.1434 -0.2673
13730S        S20534   0.372   1.937  18.571 -0.2850 -0.1239  0.4620
13731S        S20535  11.086   6.654  14.004  0.0764 -0.3355 -0.4909
13732S        S20536   7.235   5.371  13.987 -0.2555  0.0152  0.0408
13733S        S20537   9.601  12.207  19.792 -0.2028 -0.1374 -0.3534
13734S        S20538   9.397   6.981  13.326 -0.1878 -0.0689 -0.1894
13735S        S20539   0.371   9.142  14.537 -0.1567  0.0701 -0.1102
13736S        S20540   2.294   5.432  14.764  0.1096 -0.2769  0.1956
13737S        S20541  11.914   3.492  20.047  0.0417 -0.0252  0.4066
13738S        S20542  12.213  10.160  23.330  0.9233  0.1415  0.0806
13739S        S20543   5.366  11.030  30.870  0.1118  0.0250 -0.4185
13740S        S20544   9.401   7.904  28.634  0.7759  0.2011 -0.5718
13741S        S20545   4.308   1.275   5.350 -0.0415  0.4694 -0.0916
13742S        S20546   9.666   7.051  30.620  0.6291 -0.1417 -0.5019
13743S        S20547   7.286  10.811  15.026 -0.2318  0.2572  0.5054
13744S        S20548  10.626  11.670  24.068  0.0021 -0.2394  0.2508
13745S        S20549   3.519   0.773  12.598 -0.2655  0.0259 -0.1743
13746S        S20550   0.670   4.240  26.012  0.1805  0.4082 -0.1723
13747S        S20551   4.729   9.107  21.380 -0.0217  0.1482  0.0209
13748S        S20552   6.239   1.943  26.587  0.5672  0.1792 -0.6082
13749S        S20553  11.678   4.927  13.108 -0.0553  0.3123 -0.1884
13750S        S20554  10.062   2.576  13.320 -0.0581  0.2290  0.0910
13751S        S20555   5.835   7.952  28.355  0.1280 -0.1197  0.0327
13752S        S20556   9.246  11.171  25.038 -0.2120  0.0865 -0.2969
13753S        S20557   8.177   0.219  25.226  0.0296  0.3765 -0.2090
13754S        S20558   4.764   1.840  26.734 -0.3744 -0.6356 -0.0482
13755S        S20559   5.609   6.397  13.952 -0.4486  0.1648  0.4063
13756S        S20560   5.620   3.565  21.236 -0.5441 -0.3784 -0.2153
13757S        S20561   7.113   7.177  30.780  0.4177 -0.0636  0.0142
13758S        S20562   0.382  12.288  23.585  0.5963  0.1063 -0.4424
13759S        S20563   7.395   1.804  18.087  0.1740 -0.1212 -0.2426
13760S        S20564  11.955   3.667  26.347  0.2849  0.1617 -0.1609
13761S        S20565   3.312   6.894  23.405  0.5119  0.1786  0.1742
13762S        S20566   0.799   1.304  14.702 -0.1450 -0.1951  0.0082
13763S        S20567   8.803   9.300  33.957  0.5984  0.3018 -0.2576
13764S        S20568   6.937   5.559  18.724 -0.1758 -0.4436  0.2023
13765S        S20569   4.500   6.698  20.512  0.0344  0.1870 -0.4712
13766S        S20570   6.031   7.222  31.403  0.1916 -0.3037 -0.4029
13767S        S20571   7.386   1.809  24.909 -0.0417  0.0578  0.4766
13768S        S20572   5.341  11.012  24.352 -0.0538  0.0172  0.4853
13769S        S20573  11.197   4.137  24.174 -0.2931 -0.0294  0.3795
13770S        S20574  11.872   8.109  17.167 -0.0247 -0.1316 -0.3833
13771S        S20575   2.500   6.643  18.029 -0.2727 -0.3068  0.4600
13772S        S20576   3.190  10.742  18.202 -0.2779 -0.0932  0.3483
13773S        S20577   5.976   6.698  19.574  0.1631  0.2289 -0.1258
13774S        S20578   8.033   6.348  19.285  0.2487 -0.0898 -0.4159
13775S        S20579   3.954   3.330  14.254  0.1073 -0.2035 -0.1446
13776S        S20580  10.306  10.441  15.870  0.1439 -0.0743  0.1691
13777S        S20581   7.813   6.859  22.013 -0.3628 -0.3996 -0.0757
13778S        S20582   5.483   7.599  20.828  0.2081  0.2033 -0.0707
13779S        S20583   4.548   0.896  24.970  0.1896  0.1126 -0.5689
13780S        S20584   2.297  10.683  20.579 -0.2902  0.0235  0.0620
13781S        S20585  11.298   2.636  18.571  0.1120  0.4561  0.3611
13782S        S20586   3.230   9.056  23.520 -0.1004 -0.1644 -0.5497
13783S        S20587   0.541   2.056  22.232 -0.0591 -0.3603 -0.5909
13784S        S20588   6.748  11.022  29.001 -0.1063  0.1436  0.1801
13785S        S20589  12.205   5.548  23.487  0.6025  0.1827 -0.0893
13786S        S20590   2.812   7.122  21.811 -0.1989 -0.4634 -0.0442
13787S        S20591   9.263   2.264  35.251  0.2781  0.6820  0.6613
13788S        S20592  11.087   2.142  31.822 -0.1024 -0.3100  0.8990
13789S        S20593   3.646  10.321  28.017 -0.1865 -1.1513  0.2246
13790S        S20594   0.819   0.421  20.975 -0.2894 -0.0565 -0.4521
13791S        S20595   5.955  12.321  12.710 -0.3082 -0.0293  0.4847
13792S        S20596   2.021   8.719  25.536  0.3555 -0.0419 -0.8673
13793S        S20597   6.654   8.626  19.798  0.2951  0.0468 -0.4434
13794S        S20598   0.101   3.070  33.028  0.1886 -0.3671  0.3008
13795S        S20599   4.401  11.925  19.831 -0.4710  0.0054 -0.1767
13796S        S20600   6.634   5.592  26.899  0.1629  0.3396  0.0770
13797S        S20601   3.018   8.922  22.632  0.0437 -0.0928 -0.4215
13798S        S20602   7.470   6.110  20.419 -0.3378 -0.2449 -0.1979
13799S        S20603   4.881   3.347  24.071  0.1702  0.1941 -0.5158
13800S        S20604   7.594   1.016  27.923 -0.1124 -0.3757 -0.1572
13801S        S20605  10.303   6.333  29.125  0.0895  0.1864  0.3666
13802S        S20606  11.424  11.626  14.436  0.3306  0.1388 -0.3329
13803S        S20607   2.981   3.510  15.954  0.2270  0.6313 -0.4151
13804S        S20608   2.011   0.956  30.553  0.0807  0.0013  0.7907
13805S        S20609   3.917   6.892   5.234 -0.3350  0.6966  0.3171
13806S        S20610   8.673  11.013  18.512  0.4820 -0.4684  0.5507
13807S        S20611   2.929   9.174  26.911  0.0272  0.1239 -0.4889
13808S        S20612  10.190   8.229  26.341  0.1937  0.0527 -0.0294
13809S        S20613   8.050   5.350   0.561 -0.0475  0.2172  0.7587
13810S        S20614   6.272   0.181  32.599 -0.8103  0.1569 -0.1564
13811S        S20615   9.149   3.204  19.217 -0.0870 -0.1438  0.4808
13812S        S20616   5.677   9.910  27.977 -0.1126 -0.0575  0.3962
13813S        S20617   1.135   2.753  23.681  0.2020 -0.2383  0.7965
13814S        S20618   6.545   7.684  17.154  0.3520 -0.0133  0.4447
13815S        S20619   3.012   5.853  18.503 -0.2081 -0.1311 -0.0745
13816S        S20620   8.799   7.771  25.512  0.1003  0.2176 -0.4645
13817S        S20621   2.421   9.000  21.145  0.0398 -0.3177  0.3148
13818S        S20622   3.276   2.855  12.411 -0.1337  0.0056 -0.0264
13819S        S20623   8.148   4.922  11.258 -0.0490  0.0114 -0.1623
13820S        S20624   3.248   4.234  16.004 -0.5830  0.3276 -0.1467
13821S        S20625   9.254   6.488  27.073  0.8999 -0.5978 -0.0347
13822S        S20626   6.238   6.831  26.737 -0.1441 -0.3907 -0.1905
13823S        S20627   7.562   7.360  21.917  0.0041 -0.2830 -0.0453
13824S        S20628   5.866   0.560  18.632  0.1241 -0.0424  0.3108
13825S        S20629   5.567   0.699  17.362 -0.3005  0.0532  0.3821
13826S        S20630  12.063   1.781  14.797  0.3646  0.4303  0.0919
13827S        S20631   4.604   3.951  19.749  0.0712 -0.6803  0.1671
13828S        S20632  11.927   5.080  24.183 -0.0542  0.2309 -0.0192
13829S        S20633   1.844   5.866  26.845  0.5870  0.4961 -0.4112
13830S        S20634   5.108   2.979  21.015  0.1130  0.0572 -0.6677
13831S        S20635   4.852   4.385  14.077 -0.0453 -0.4490  0.1389
13832S        S20636   0.644   0.751  27.013  0.3451 -0.8018 -0.0009
13833S        S20637  11.643   7.304  10.813 -0.3128 -0.1713 -0.3432
13834S        S20638   3.086   5.574  21.509  0.1407  0.4949 -0.1315
13835S        S20639   7.131   1.885  31.362  0.2126 -0.9766 -0.4977
13836S        S20640   6.781   8.594  32.869  0.2332 -0.3621 -0.1079
13837S        S20641   8.575  10.416  26.651 -0.4595 -0.3289 -0.2767
13838S        S20642   2.986   6.039  16.281 -0.0423  0.6825 -0.0761
13839S        S20643   8.819   4.804  17.277 -0.0421  0.2532 -0.3603
13840S        S20644  11.019   0.946  20.145  0.0632  0.4565  0.0856
13841S        S20645   9.386   7.953  14.260  0.2353 -0.0664  0.2694
13842S        S20646   6.496   6.580  30.290  0.6435 -0.0177  0.1847
13843S        S20647  11.696   6.715  21.456  0.2322 -0.0511  0.1052
13844S        S20648  12.210   5.402  24.484  0.0705  0.3542  0.0989
13845S        S20649   2.506  10.550  19.551 -0.1027 -0.2614  0.5035
13846S        S20650  10.698   7.259  16.838  0.4329  0.1184 -0.1674
13847S        S20651  10.311  11.527  26.151  0.2259 -0.5555 -0.0137
13848S        S20652   6.184   4.065  28.851  0.0698  0.0187 -0.0987
13849S        S20653  10.064   4.055  30.115 -0.0712 -0.4712  0.4195
13850S        S20654   3.302   0.742  32.434 -0.0918  0.0607  0.3529
13851S        S20655   7.152   5.076  29.092 -0.0436  0.1602 -0.2924
13852S        S20656   8.205   5.628  29.487  0.0610  0.1713  0.2817
13853S        S20657   2.141   5.415  12.477 -0.2823  0.0641  0.4602
13854S        S20658   5.114   7.409  19.896  0.0458  0.0543  0.4400
13855S        S20659   2.761   5.695  26.502 -0.3512 -0.7900 -0.3281
13856S        S20660   5.578   8.369  14.943  0.1450  0.0624 -0.3157
13857S        S20661   5.334   0.670  31.502  0.8350  0.1368 -0.2083
13858S        S20662   6.548   4.800  19.337  0.0801 -0.2308 -0.6085
13859S        S20663   7.630   8.658  28.247  0.0654 -0.6171 -0.3094
13860S        S20664   9.517   4.056  19.594 -0.2110  0.2839  0.1452
13861S        S20665  11.405   7.070  21.247  0.1710 -0.8098  0.1925
13862S        S20666   9.061  12.222  18.788 -0.0569  0.1536  0.0194
13863S        S20667   6.253   9.500  18.390 -0.0570  0.0745 -0.5118
13864S        S20668   3.884   1.338  18.565 -0.3628 -0.0048  0.3296
13865S        S20669   9.631  10.523  24.052  0.0836  0.0351 -0.0670
13866S        S20670  11.907   7.467  18.276 -0.2532 -0.0261  0.4612
13867S        S20671   3.507   8.699  20.427 -0.0120 -0.2286  0.5155
13868S        S20672   7.682   5.223  13.137  0.1700 -0.3917  0.0541
13869S        S20673   6.013  11.880  16.320 -0.3253 -0.5594 -0.0847
13870S        S20674   4.256  10.625  15.286  0.4671  0.1556 -0.3778
13871S        S20675   8.349   1.042  27.194 -0.2133 -0.0182  0.5681
13872S        S20676   9.319   8.405  19.709  0.4636  0.1650 -0.4034
13873S        S20677   0.353   9.441  11.501  0.0557 -0.3418  0.3424
13874S        S20678  11.247   0.492  19.145  0.0237  0.3007  0.2115
13875S        S20679   1.502   9.411  22.800  0.5869 -0.1228  0.1184
13876S        S20680   6.533   9.106  16.556 -0.3181 -0.5175 -0.0271
13877S        S20681  10.071  12.169  12.857 -0.5642  0.4251 -0.2161
13878S        S20682   7.249   3.187  18.788  0.2489  0.1021  0.4661
13879S        S20683  12.196  11.380  26.972  0.1377 -0.1013 -0.7646
13880S        S20684   5.241   3.231  16.939  0.1856  0.0384 -0.0270
13881S        S20685  12.067   1.164  19.531  0.2245 -0.5827  0.2492
13882S        S20686   5.432   9.947  18.126  0.2015 -0.2515 -0.0261
13883S        S20687  10.179   8.432  25.297  0.7111  0.3900  0.3831
13884S        S20688   9.452   9.002  14.911  0.2194  0.2079 -0.4939
13885S        S20689   5.345   5.774  18.601 -0.2957  0.0353 -0.0136
13886S        S20690   4.223  12.012  13.685 -0.1258 -0.3290  0.1418
13887S        S20691   5.548   0.562  27.861  0.3243  0.3299 -0.1634
13888S        S20692   5.748   4.513  16.635  0.5644 -0.8293 -0.3397
13889S        S20693   1.276   4.393  16.861  0.0834 -0.1274 -0.1346
13890S        S20694   8.540   7.374  11.800  0.0953 -0.1530 -0.2709
13891S        S20695  10.152   5.318  20.149  0.1944  0.3000 -0.1553
13892S        S20696   8.603   8.679  14.708  0.2005 -0.1945 -0.1361
13893S        S20697   6.196   9.215  17.972 -0.6418  0.2844  0.4156
13894S        S20698   3.584   3.165  25.652  0.2757 -0.5565  0.0650
13895S        S20699   4.442   3.404  23.702 -0.2329  0.0727 -0.1054
13896S        S20700   8.355   7.266  16.752  0.0620  0.3938 -0.1095
13897S        S20701   4.759   2.433  24.000  0.4359  0.2657 -0.0608
13898S        S20702   1.855   6.599  27.633  0.4389 -0.3323  0.1429
13899S        S20703   4.515   3.675  24.168  0.4902  0.3417  0.2197
13900S        S20704   6.932   2.535  11.929  0.2452  0.0992 -0.4324
13901S        S20705  10.686   0.824  25.787  0.0599  0.0591 -0.2092
13902S        S20706   0.139  10.940  13.472 -0.2377  0.0126  0.0318
13903S        S20707  11.798  12.205  18.709 -0.2915  0.1937  0.0905
13904S        S20708   8.247   8.753  11.482 -0.3288  0.4711  0.3309
13905S        S20709  11.804  10.794  16.652  0.1949 -0.2248  0.1078
13906S        S20710   2.354   7.512  18.971 -0.5603  0.6131 -0.1281
13907S        S20711  11.757   2.859  32.081 -0.0804 -0.0268 -0.4405
13908S        S20712   2.163  10.711  16.822  0.3300 -0.5977 -0.1997
13909S        S20713   4.657  10.429  26.437 -0.2976  0.3256  0.0633
13910S        S20714  12.037   9.059  24.590  0.0294  0.2381  0.1947
13911S        S20715  11.235   7.825  19.091 -0.2666 -0.0245  0.2153
13912S        S20716  10.491   1.876  21.699  0.2290  0.0361  0.3710
13913S        S20717   7.544  10.757  19.124  0.0876 -0.2202 -0.3976
13914S        S20718   9.175   6.635  12.078 -0.1532  0.1415 -0.0651
13915S        S20719   3.450   9.140  16.419  0.4012  0.2347 -0.1579
13916S        S20720   1.886   7.913  16.208 -0.2516 -0.9422  0.0500
13917S        S20721   6.148   0.826  27.200  0.1997 -0.0464 -0.4443
13918S        S20722   9.364  12.347  13.050  0.1165  0.2605  0.1308
13919S        S20723   3.447   7.300  28.582 -0.5524  0.1461 -0.5100
13920S        S20724   5.967   4.114  20.142  0.0811 -0.5754 -0.3063
13921S        S20725   5.550   4.532  24.098  0.3784 -0.4581 -0.4948
13922S        S20726   7.640  11.362  23.571  0.3920 -0.2677 -0.2122
13923S        S20727   2.960   9.834  30.042 -0.6955  0.3695  0.3871
13924S        S20728   0.435  12.322  27.526  0.3011  0.3405 -0.0917
13925S        S20729  12.035  12.317  14.773  0.3789  0.1586 -0.0688
13926S        S20730   3.648   0.291  30.416 -0.4703 -0.1931 -0.5426
13927S        S20731   8.221  10.359  16.899  0.5511  0.0237 -0.7910
13928S        S20732   9.102   2.022  18.653 -0.3020  0.1567 -0.2119
13929S        S20733   6.853  10.311  21.944 -0.2221  0.1618 -0.0906
13930S        S20734   9.867   2.419  21.548 -0.4366 -0.2245 -0.1759
13931S        S20735  10.399   0.791  15.595 -0.7975 -0.0615  0.2601
13932S        S20736   3.563   8.166  28.799 -0.2381  0.1387 -0.1520
13933S        S20737   3.662  10.480  11.806  0.0447 -0.1271  0.0237
13934S        S20738   3.547  10.397  23.895  0.1904 -0.0058  0.1443
13935S        S20739   5.316   4.497  26.933  0.2864 -0.1205  0.4624
13936S        S20740   3.464   6.080  16.105 -0.4332 -0.0529 -0.2075
13937S        S20741   1.722   0.296  34.071  0.2232 -0.0348  0.5150
13938S        S20742   1.599   4.662  16.506  0.4013  0.1395  0.0931
13939S        S20743  12.041   5.012  30.196  0.7065  0.7959  0.2411
13940S        S20744   3.172   0.421  23.540 -0.1311  0.3883 -0.2709
13941S        S20745   2.744  11.141  30.887  0.0837  0.2550  0.0861
13942S        S20746   2.559  12.046  19.554  0.1852 -0.0108  0.4645
13943S        S20747   0.374   6.024  27.872 -0.4311 -0.0741  0.4684
13944S        S20748   3.440   7.392  24.483  0.2412  0.3120 -0.2798
13945S        S20749   2.830   1.677  22.965  0.0390 -0.0803 -0.2993
13946S        S20750   5.026  12.239  16.128 -0.3836  0.2967 -0.5850
13947S        S20751   0.035   7.592  25.899  0.8156 -0.3272  0.2544
13948S        S20752   0.666   8.220  14.789  0.3009 -0.2048  0.2753
13949S        S20753   5.855  10.156  18.341  0.1129  0.2586 -0.1846
13950S        S20754  11.687   7.438  25.619 -0.1345  0.1160  0.2419
13951S        S20755   3.525   9.612  17.332  0.3300 -0.3991 -0.2415
13952S        S20756   1.460   9.765  18.264  0.1313  0.2650  0.1612
13953S        S20757   2.785   4.266  14.231 -0.3803  0.1567 -0.0687
13954S        S20758   3.625   4.193  27.679  0.8046 -0.3117  0.1437
13955S        S20759   1.182   4.935  16.634  0.1826 -0.1844 -0.2379
13956S        S20760  12.197   0.058  23.591  0.3010 -0.3814  0.0900
13957S        S20761  10.014   5.086  11.048  0.0111 -0.2908 -0.3635
13958S        S20762   7.540  10.654  16.252 -0.1781  0.2202 -0.0913
13959S        S20763  10.725  12.268  15.446  0.1115 -0.2681 -0.0206
13960S        S20764   8.695   8.203  22.651 -0.1828  0.3071 -0.0408
13961S        S20765   4.078   0.694  24.555 -0.0012  0.2112 -0.2293
13962S        S20766   2.086   8.330  27.397 -0.2830  0.3849 -0.1225
13963S        S20767   9.295  11.681  22.267  0.4984 -0.5698 -0.5272
13964S        S20768   0.373  11.196  24.708  0.5953 -0.1947  0.2481
13965S        S20769   5.991  11.805  33.559 -0.1841 -0.1040  0.1537
13966S        S20770   3.586  10.866  12.222 -0.3429  0.6634 -0.3085
13967S        S20771  12.071  11.813  25.707  0.1220 -0.1480 -0.0991
13968S        S20772   7.715   0.593  10.953  0.1914  0.0219 -0.3424
13969S        S20773   1.089  11.440  27.182  0.2026 -0.5210 -0.0981
13970S        S20774  10.541   1.842  23.976 -0.0592  0.3255 -0.4729
13971S        S20775   4.068   8.631  23.732  0.1440 -0.0829 -0.0439
13972S        S20776  10.806   2.357  19.531 -0.1157 -0.1922 -0.0131
13973S        S20777  10.420   3.735  16.896 -0.0461 -0.6173  0.0062
13974S        S20778   5.455   4.264  26.314 -0.1332  0.0654 -0.0774
13975S        S20779  10.589   4.417  25.785 -0.0909  0.5868 -0.2999
13976S        S20780   0.633   3.781  31.813  0.1929 -0.7276  0.5027
13977S        S20781   8.735   2.122  26.267 -0.4507  0.1886 -0.0823
13978S        S20782   3.683   3.475  12.927  0.0456  0.1092  0.7941
13979S        S20783   8.893   9.657  27.004 -0.2602 -0.1807 -0.7641
13980S        S20784   4.374   3.514  17.765 -0.3573 -0.0082 -0.1638
13981S        S20785   4.109   7.437  10.388 -0.3757 -0.1413 -0.0242
13982S        S20786   4.828   4.677  27.315  0.5814  0.2835 -0.0088
13983S        S20787   7.065  12.021  17.121 -0.1034 -0.1256 -0.0702
13984S        S20788   7.558   2.540  24.004  0.0405  0.7332  0.0447
13985S        S20789   8.239   0.798  19.259  0.0878  0.0958  0.0742
13986S        S20790   6.214   8.153  31.226  0.4698  0.4885 -0.1508
13987S        S20791   7.522   3.941  18.424 -0.3560 -0.0119  0.3727
13988S        S20792   8.738   2.637  11.703 -0.4648 -0.2063  0.1682
13989S        S20793   9.785  11.861  26.813  0.3499 -0.4012 -0.1793
13990S        S20794   0.277   4.858  27.322 -0.2687 -0.1907 -0.0589
13991S        S20795   9.530   1.629  19.931 -0.3034 -0.1011 -0.0271
13992S        S20796   8.776   2.959  11.124  0.0791  0.1469  0.2658
13993S        S20797   6.563   1.218  21.790 -0.0136 -0.0515  0.8063
13994S        S20798   3.447   5.964  25.865  0.6225 -0.7356  0.4979
13995S        S20799   2.594   8.324  16.084  0.0946  0.2521  0.1180
13996S        S20800   6.068   8.951  33.199  0.2900  0.0563 -0.0630
13997S        S20801  10.092   2.490  27.298  0.3617 -0.1536  0.7417
13998S        S20802  11.798   7.027  11.217 -0.2274 -0.3037  0.4324
13999S        S20803  10.381  12.165  16.869 -0.1936  0.1668 -0.1797
14000S        S20804   9.876   6.900  47.973  0.3873 -0.0540  0.3979
14001S        S20805  10.708   3.739  31.190  0.0090 -0.1427 -0.3000
14002S        S20806  10.636   4.171  14.391 -0.1789  0.0949  0.1556
14003S        S20807   8.085   2.821  16.134  0.6932 -0.0642  0.2425
14004S        S20808  11.300   7.313  28.597 -0.4163 -0.4387 -0.1581
14005S        S20809   3.538   8.905   3.236  0.1023 -0.1234  0.3470
14006S        S20810   2.684   0.419  28.806  0.3026  0.3011  0.7982
14007S        S20811   4.571   2.538  18.449  0.4330  0.1038 -0.2230
14008S        S20812   6.360  10.161  17.155 -0.1413  0.3965  0.1090
14009S        S20813   6.426  11.666  22.668 -0.2646 -0.2862  0.1333
14010S        S20814   3.142  10.946  25.052 -0.2007  0.6661 -0.1717
14011S        S20815   1.964   0.458  13.784  0.3750 -0.5226 -0.3101
14012S        S20816   3.324   2.489  19.703 -0.8706 -0.2793  0.1229
14013S        S20817  10.322   2.729  29.741 -0.3285  0.2620 -0.0574
14014S        S20818   2.482   9.858  30.281  0.1719  0.8524 -0.3441
14015S        S20819  11.468   2.353  14.271 -0.0197  0.5350 -0.0023
14016S        S20820   3.076   0.336  18.144  0.6762  0.5089 -0.3068
14017S        S20821   4.702   5.462  15.238  0.0253 -0.0438 -0.3473
14018S        S20822   5.272  10.032  27.652  0.1142 -0.3147 -0.4034
14019S        S20823   6.536   8.640  40.363  0.0259 -0.1579  0.0348
14020S        S20824   3.639   4.304  18.926 -0.0330  0.0189  0.3233
14021S        S20825   9.192  10.822  21.692  0.5583  0.0888 -0.1835
14022S        S20826   6.657  10.996  20.322 -0.0858 -0.4547 -0.1516
14023S        S20827  10.371  12.216  31.216  0.2007  0.1265 -0.3015
14024S        S20828  11.822   5.359  23.291 -0.0501 -0.4736 -0.0852
14025S        S20829  10.305  11.921  25.850  0.4387 -0.0409 -0.1095
14026S        S20830  11.270   1.501  24.612  0.3372  0.2366  0.0660
14027S        S20831   8.691   0.645  16.014  0.3712  0.1808 -0.6105
14028S        S20832  10.692   7.548  26.822 -0.0389  0.0531  0.3009
14029S        S20833  11.802  11.961  19.368  0.9513 -0.0835  0.1361
14030S        S20834   8.451  10.426  13.848  0.0321  0.2235  0.0066
14031S        S20835   3.420   1.291  12.212 -0.1500  0.4786 -0.2334
14032S        S20836   0.789   0.252  20.220  0.4091  0.1367  0.2376
14033S        S20837   5.748   9.464  26.828 -0.2118  0.1182  0.6624
14034S        S20838   2.083   3.302  29.512  0.1607 -1.0491  0.2383
14035S        S20839   4.977   9.995  26.553 -0.7506  0.1827 -0.2118
14036S        S20840   5.665  12.242  27.379  0.3579  0.3387 -0.3705
14037S        S20841   9.257  11.793  17.881  0.2322 -0.4197 -0.1062
14038S        S20842   3.949   6.438  28.480 -0.3973 -0.1010 -0.4999
14039S        S20843   9.545   2.672  30.699  0.4223 -0.5086 -0.3918
14040S        S20844   9.115  10.602  16.521  0.0602 -0.1596 -0.2416
14041S        S20845   6.241   4.520  47.854  0.2639  0.1150  0.4088
14042S        S20846  11.023   9.114  16.864  0.1788 -0.0020 -0.3683
14043S        S20847   3.546  10.975  27.308  0.0242  0.2749  0.0931
14044S        S20848   5.229   4.561  28.960  0.1191 -0.1771  0.7971
14045S        S20849   9.954   3.797  19.723  0.0287  0.3600  0.0653
14046S        S20850   0.891   6.365  13.553 -0.6264 -0.2688  0.1413
14047S        S20851  12.175   3.673  15.304  0.3830  0.3263 -0.3359
14048S        S20852  11.617   5.533  12.202  0.0513 -0.0946 -0.1053
14049S        S20853  11.749   6.058  15.708  0.2660 -0.0085 -0.2930
14050S        S20854   5.829   8.860  17.890 -0.0421  0.0006  0.3452
14051S        S20855   7.418   3.821  23.259  0.1291 -0.5538  0.1734
14052S        S20856   8.657   2.637  20.602  0.8403  0.6530  0.4223
14053S        S20857   9.526   0.212  31.967 -0.1557 -0.0467  0.3722
14054S        S20858   1.916   2.519  16.269  0.2256 -0.3961  0.4643
14055S        S20859   8.613   8.525  18.142 -0.1462 -0.0077  0.1393
14056S        S20860   1.244  10.800  17.829  0.0397 -0.0947 -0.1934
14057S        S20861   4.756   1.546  17.977  0.4446  0.0371 -0.0965
14058S        S20862   4.240   6.439  26.931 -0.2383  0.2231  0.0662
14059S        S20863   4.193   4.094  20.018 -0.5378 -0.1599 -0.1557
14060S        S20864   3.882   6.951  17.918  0.3297  0.2966 -0.0380
14061S        S20865   7.370   8.714  22.367  0.1563  0.4082 -0.6890
14062S        S20866   2.917   2.477  23.735  0.2130 -0.0914  0.3230
14063S        S20867   7.007   4.909  19.470  0.5033 -0.0540 -0.2269
14064S        S20868   2.242   7.424  15.347  0.1539 -0.1033 -0.0551
14065S        S20869   3.833   1.516  21.263 -0.2871 -0.0053 -0.2137
14066S        S20870  10.599  11.633  14.348  0.2098  0.0016  0.4419
14067S        S20871   8.657   1.679  29.936 -0.3733 -0.5026  0.0918
14068S        S20872   6.675   9.955  20.340  0.3371  0.2180  0.4713
14069S        S20873   2.443   2.925  12.423 -0.1785 -0.3471  0.3493
14070S        S20874   6.328  10.174  20.577  0.1768 -0.3931 -0.2958
14071S        S20875   6.011   3.172  28.555 -0.0487 -0.0449  1.2278
14072S        S20876   8.746   4.028  12.149  0.0129  0.2772  0.0718
14073S        S20877   5.847   7.147  28.497 -0.4638  0.3071 -0.3750
14074S        S20878   8.408  10.758  27.973 -0.3335  0.0711  0.1467
14075S        S20879   0.249   0.610  12.147  0.0819  0.1755  0.4202
14076S        S20880  11.914   1.144  48.837 -0.0917 -0.1437 -0.2779
14077S        S20881   3.086   9.399  13.245 -0.0191  0.3628 -0.2582
14078S        S20882   2.813   5.817  28.438  0.1622 -0.4568  0.2725
14079S        S20883  10.385   8.109  20.500  0.4697 -0.0837  0.3786
14080S        S20884   5.393   4.223  46.264 -0.1750  0.1115  0.1905
14081S        S20885   7.337   4.155  19.009  0.1623 -0.0867  0.0617
14082S        S20886   4.243   0.488  19.414  0.0382  0.2980 -0.1283
14083S        S20887  10.800   2.215  13.407 -0.1028  0.1544 -0.0559
14084S        S20888  11.020   3.223  13.289  0.5116  0.1912 -0.2212
14085S        S20889   8.644   9.331  13.329  0.6673 -0.2176  0.2097
14086S        S20890   9.477   8.779  13.466  0.0068 -0.0048  0.1578
14087S        S20891   6.144  11.210  24.843  0.5533  0.9424 -0.1078
14088S        S20892  10.142  11.820  18.539 -0.3382 -0.0768 -0.0045
14089S        S20893  10.743   4.076  13.528  0.0919 -0.0468  0.2578
14090S        S20894   7.351  10.550  30.349  0.2668 -0.4400  0.3522
14091S        S20895  11.718   1.116  29.930 -0.0740  0.4946  0.4982
14092S        S20896   2.772  10.390  17.008  0.0731 -0.3166  0.0664
14093S        S20897   0.997   8.237  19.617 -0.1458  0.3782  0.0020
14094S        S20898  12.113   6.102  12.107  0.1119  0.0594  0.1619
14095S        S20899  11.265   4.935  17.272  0.6704  0.0769  0.4137
14096S        S20900   7.041   6.631  12.818 -0.0136 -0.0647 -0.1958
14097S        S20901   0.264   9.549  27.945  0.4887 -0.0058  0.2666
14098S        S20902   5.005   3.807  29.005 -0.3721  0.2571  0.4774
14099S        S20903   0.740   4.876  13.208  0.0004 -0.1199  0.2516
14100S        S20904   4.095   0.224  11.511 -0.1118 -0.6001  0.0763
14101S        S20905   0.588   4.196  24.744  0.2652  0.3842  0.2031
14102S        S20906   6.631   5.912  28.701  0.2036 -0.1778  0.6153
14103S        S20907   5.240   3.941  20.969 -0.3570 -0.1757 -0.0606
14104S        S20908   9.953   2.719  26.872 -0.1445  0.1842 -0.3400
14105S        S20909   3.082   7.667  15.448 -0.0871 -0.3796 -0.1808
14106S        S20910   9.145   8.296  17.159  0.0091 -0.2799 -0.2426
14107S        S20911   2.596   8.636  16.514  0.1614  0.0330 -0.0868
14108S        S20912   6.114   2.504  36.564 -0.3900  0.0918 -0.1326
14109S        S20913  11.892   5.299  16.328  0.0093  0.0337 -0.1470
14110S        S20914   1.000   9.295  26.633 -0.0092  0.1191  0.0590
14111S        S20915   5.833   4.789  23.492 -0.1297 -0.2461 -0.1868
14112S        S20916   3.790   5.761  18.055  0.3811 -0.1698  0.1539
14113S        S20917   0.292  11.358  24.213 -0.0869 -0.1701 -0.6768
14114S        S20918   4.314   3.328  26.810  0.4110  0.4939  0.6706
14115S        S20919  11.324   9.908  15.428  0.1078  0.1814  0.1926
14116S        S20920   4.620   2.411  24.521  0.1962  0.1907 -0.6303
14117S        S20921   3.940   4.862  19.432  0.0751 -0.4721 -0.0099
14118S        S20922  11.671   0.992  28.897  0.4348 -0.3121 -0.2268
14119S        S20923   2.381   2.104  25.897  0.2904  0.2666 -0.1097
14120S        S20924   2.356   6.138  26.317  0.1629  0.2375  0.5398
14121S        S20925   7.158  11.202  27.372  0.5994 -0.1458  0.2686
14122S        S20926   6.809  11.587  27.308 -0.1478  0.8721 -0.2916
14123S        S20927   7.854   4.456  25.952 -0.1190 -0.4061  0.3091
14124S        S20928  11.189   8.961  16.196  0.1175  0.1940 -0.2838
14125S        S20929  10.959   1.963  25.599 -0.0157 -0.0520  0.4471
14126S        S20930   7.816   0.710  22.502 -0.3216 -0.1838  0.3156
14127S        S20931   1.245   9.804  24.603  0.0680  0.0794 -0.2975
14128S        S20932  11.185   7.533  20.843  0.6519 -0.0224 -0.1880
14129S        S20933   6.178   2.162  25.432  0.0419  0.0934 -0.2878
14130S        S20934   0.763   2.938  14.515 -0.0809  0.0197 -0.4667
14131S        S20935  12.267   3.512  25.285 -0.2524 -0.2191  0.6182
14132S        S20936   6.245   2.063  13.888  0.1892 -0.1750  0.0167
14133S        S20937   0.570  12.178  26.165 -0.5275 -0.8408 -0.1841
14134S        S20938   3.705   3.210  19.007  0.3704 -0.0457  0.0080
14135S        S20939   2.387   3.826  25.611 -0.0948  0.4137 -0.4231
14136S        S20940   2.456   0.126  28.439  0.4272  0.0348 -0.0737
14137S        S20941   2.077   6.426  28.692 -0.1348 -0.4093  0.0730
14138S        S20942  11.476   3.111  31.371 -0.0566 -0.4789 -0.3644
14139S        S20943   4.813   7.866  22.425 -0.0763  0.3299 -0.0308
14140S        S20944  12.057  11.669  22.502  0.0727 -0.1756  0.0872
14141S        S20945   1.530   5.581  28.853  0.2685  0.2317  0.1499
14142S        S20946  11.628  11.897  26.558  0.3931  0.2846  0.2869
14143S        S20947   3.874   3.972  17.584 -0.4999 -0.0773  0.9441
14144S        S20948  10.021  10.732  27.946 -0.0466 -0.6278 -0.2130
14145S        S20949   6.699   0.901  26.129  0.3385 -0.1499 -0.6782
14146S        S20950   0.839   9.894  14.392  0.0482 -0.1207  0.1128
14147S        S20951   9.126   3.178  24.451  0.6023  0.2530 -0.1733
14148S        S20952   1.950   3.993  14.124  0.5994 -0.3770  0.2310
14149S        S20953   7.613   8.683  13.727 -0.3085  0.2027 -0.4248
14150S        S20954   5.431  11.497  12.695  0.1238  0.0455 -0.5982
14151S        S20955  11.047  12.061  24.245  0.3907 -0.1937  0.0401
14152S        S20956   4.488   4.532  28.726  0.2893 -0.2074 -0.0619
14153S        S20957   2.280   3.435  24.491  0.2314  0.0551  0.0682
14154S        S20958   3.630   3.631  21.039  0.0068  0.1014 -0.3766
14155S        S20959  12.357   8.287  11.214 -0.0855  0.1151  0.0937
14156S        S20960   3.053   1.777  29.184 -0.2830  0.1045 -0.2881
14157S        S20961   1.316   9.355  15.735 -0.0526  0.1662 -0.0360
14158S        S20962   6.068   2.856  12.377  0.3131 -0.0427  0.0199
14159S        S20963   8.787   0.409  26.957  0.1158  0.0434 -0.2769
14160S        S20964  11.998   9.668  29.438  0.1215  0.8751  0.2876
14161S        S20965   4.462   1.771  22.214  0.3522  0.1418  0.2908
14162S        S20966   8.141   6.737  17.566  0.6456 -0.1196 -0.4088
14163S        S20967   8.889   3.541  27.841 -0.0316  0.4320 -0.1904
14164S        S20968   7.525   1.555  22.441  0.0655  0.2787  0.3607
14165S        S20969   8.429   9.656  16.036 -0.2594 -0.1899 -0.4485
14166S        S20970   1.193   1.895  15.560 -0.1251 -0.5041  0.4631
14167S        S20971   6.156   2.039  28.824  0.1664 -0.3489 -0.3168
14168S        S20972   9.024   4.853  35.429  0.3234  0.1088  0.1216
14169S        S20973   7.584   9.721  21.556 -0.4571 -0.1268 -0.1251
14170S        S20974   0.112   7.725  20.981  0.9569  0.0211  0.1923
14171S        S20975   9.578   6.867  18.504  0.3835  0.1223 -0.6032
14172S        S20976  10.789   2.404  29.666  0.0476 -0.0765 -0.4748
14173S        S20977  10.931   7.677  14.246  0.2243 -0.4190  0.3183
14174S        S20978   2.868   1.758  18.337  0.4217 -0.2556  0.2451
14175S        S20979   7.095  11.785  25.120  0.1426  0.4388 -0.9784
14176S        S20980   7.536   9.324  26.190 -0.3621 -0.2906 -0.4865
14177S        S20981   9.427   4.403  27.762 -0.1472  0.1535 -0.2790
14178S        S20982  12.060   0.026  26.967 -0.0848  0.0461 -0.5080
14179S        S20983   4.726   6.205  22.000 -0.2891  0.4995  0.3024
14180S        S20984   5.477   6.613  19.786 -0.0517  0.1515  0.1734
14181S        S20985   3.248  10.004  17.658  0.1728  0.0899  0.3214
14182S        S20986   5.870   5.353  13.465 -0.1243  0.1304  0.0934
14183S        S20987   0.780   8.217  13.670  0.3981  0.5009 -0.3100
14184S        S20988  10.088   3.592  13.115 -0.0081  0.0758 -0.6550
14185S        S20989   0.482   8.043  21.249  0.2647  0.3861 -0.0826
14186S        S20990   8.646  11.723  12.529  0.0064  0.3176 -0.3221
14187S        S20991   8.286   2.890  17.278 -0.1242  0.0035  0.0418
14188S        S20992   9.671   3.972  11.378  0.4023  0.3158 -0.1112
14189S        S20993   6.388   4.279  11.924  0.2165 -0.1302  0.1239
14190S        S20994  11.435   3.096  13.068 -0.0892 -0.2609 -0.1291
14191S        S20995  10.533  11.135  30.288 -0.1491  0.1213  0.0186
14192S        S20996   7.386   2.234  14.452 -0.0089 -0.1324 -0.0095
14193S        S20997  10.359   0.047  13.198 -0.2240 -0.3052 -0.7432
14194S        S20998   3.012   9.662  27.803  0.1605  0.1314 -0.2677
14195S        S20999   8.128   1.847  32.149  0.2752  0.0516  0.1828
14196S        S21000   1.623   6.001  17.322 -0.1896  0.2966  0.1146
14197S        S21001   6.864   9.843  11.235 -0.4199  0.2712 -0.4088
14198S        S21002   3.322   1.346  17.657  0.8046 -0.0243 -0.4304
14199S        S21003   0.031   0.485  16.843  0.0984 -0.4866  0.0581
14200S        S21004  11.436   7.635  16.474 -0.0471  0.6985 -0.2950
14201S        S21005   1.297   3.853  15.150 -0.1832  0.5624 -0.1354
14202S        S21006   7.821  10.049  29.733 -0.3503 -0.2337  0.1732
14203S        S21007   4.077   6.147  19.452 -0.3601 -0.3868  0.4080
14204S        S21008   6.845   2.687  17.423  0.4463  0.0564 -0.3847
14205S        S21009   3.148   6.851  22.182  0.2027 -0.2389  0.3864
14206S        S21010   6.500   0.299  22.982 -0.2386 -0.2669 -0.8648
14207S        S21011  11.323   5.164  24.664  0.1319 -0.6705  0.1792
14208S        S21012   9.867   4.146  31.749  0.4516  0.3989  0.0785
14209S        S21013   9.843  11.669  31.060 -0.0085 -0.2147  0.1063
14210S        S21014   5.478   9.161  15.211 -0.4088 -0.0365 -0.1824
14211S        S21015   8.288   8.772  20.799  0.0976 -0.0148  0.2800
14212S        S21016   7.171   7.322  12.446  0.1205 -0.0889 -0.0826
14213S        S21017   3.737   3.508  22.598 -0.1640 -0.2717 -0.3438
14214S        S21018   6.631   8.257  17.048  0.2962 -0.0093 -0.3548
14215S        S21019  10.667   0.233  19.913 -0.7629 -0.1999  0.5686
14216S        S21020   3.808   1.417  26.677  0.1598 -0.1314 -0.3741
14217S        S21021   6.012   7.295  32.305 -0.1076 -0.1192  0.1079
14218S        S21022   7.004   1.371  13.417 -0.1648 -0.0002  0.4843
14219S        S21023  10.516  10.367  16.918 -0.4935 -0.1717  0.3302
14220S        S21024   7.623   1.707  29.100 -0.0733 -0.4394  0.4696
14221S        S21025  11.856   9.157  28.991 -0.1437 -0.0940  0.2489
14222S        S21026   0.533   6.467  28.217  0.1669 -0.6280  0.2068
14223S        S21027   5.041   4.523  20.387  0.2415 -0.0411 -0.0641
14224S        S21028   3.711   3.645  23.724 -1.0177 -0.1358 -0.4658
14225S        S21029   2.819   3.079  18.338  0.2241  0.2383  0.5238
14226S        S21030   6.159   4.168  20.612  0.2165  0.0363 -0.0401
14227S        S21031   3.229  10.679  25.846 -0.0750  0.2664  0.5730
14228S        S21032   9.664   5.037  24.946 -0.0010  0.4304  0.0219
14229S        S21033  10.628   9.199  27.593 -0.3551 -0.2953 -0.2362
14230S        S21034  11.593   3.262  27.168 -0.2362  0.4777 -0.3597
14231S        S21035   5.819   3.981  24.971 -0.1894 -0.0683 -0.3778
14232S        S21036   3.471   0.653  30.769  0.0537  0.2520  0.8830
14233S        S21037   8.153   2.967  29.255 -0.2300  0.2245 -0.3091
14234S        S21038  12.287   1.022  21.787  0.2604  0.3039  0.6183
14235S        S21039   6.608   0.182  29.038  0.1782 -0.2576 -0.2308
14236S        S21040   6.210   2.276  20.841 -0.1364 -0.7171 -0.1972
14237S        S21041   9.921   6.792  19.359 -0.4996 -0.1301  0.0219
14238S        S21042   5.510   8.832  14.676  0.1459 -0.1227  0.3745
14239S        S21043   5.970   6.521  15.989  0.0053 -0.0592 -0.2879
14240S        S21044   7.101   9.528  27.408 -0.5915  0.4409 -0.1115
14241S        S21045   6.424   2.004  32.473  0.3783  0.5382 -0.1004
14242S        S21046   3.964   5.658  31.554 -0.1911 -0.2932  0.5227
14243S        S21047   4.593   0.341  11.839  0.1717 -0.1313  0.5058
14244S        S21048   1.518   7.210  14.281 -0.0759 -0.1757  0.0907
14245S        S21049   9.891   8.674  12.173 -0.0078 -0.2030 -0.2165
14246S        S21050   0.810  11.289  16.246 -0.3856  0.0027 -0.1388
14247S        S21051   7.687   4.125  21.583  0.1077 -0.1560  0.0179
14248S        S21052   2.530   3.346  20.665 -0.3301  0.1802 -0.6442
14249S        S21053   1.206   5.233  22.884  0.2420  0.5053 -0.1625
14250S        S21054   8.566   7.382  29.868  0.0902  0.4590  0.3018
14251S        S21055   8.647   5.544  11.602 -0.0416 -0.2116 -0.3695
14252S        S21056   5.455   3.478  15.141 -0.5963  0.1924 -0.2852
14253S        S21057   4.484   0.465  18.958  0.0792 -0.0978  0.4532
14254S        S21058   3.684   4.524  13.161  0.1522 -0.3768  0.1626
14255S        S21059   0.722   5.914  18.904  0.3156 -0.1161  0.0817
14256S        S21060   4.578   9.622  28.090 -0.2355 -0.0937  0.2357
14257S        S21061   3.020   6.950  12.963  0.0541  0.3628 -0.1600
14258S        S21062  12.204  10.308  11.328  0.3283  0.1955  0.0580
14259S        S21063   0.163   9.094  25.800 -0.0890  0.4958  0.1248
14260S        S21064   3.319   1.067  19.251 -0.0647  0.2292  0.2732
14261S        S21065   7.632   1.575  10.373  0.0393 -0.1615  0.1755
14262S        S21066   8.787   6.819  29.815  0.1111  0.1116  0.2516
14263S        S21067   7.987   9.466  16.210 -0.0714 -0.2108 -0.2239
14264S        S21068   5.608  11.521  27.250 -0.4187  0.0509  0.0882
14265S        S21069   0.558  10.301  13.514 -0.3761  0.0200 -0.1857
14266S        S21070   8.496   6.400  15.483 -0.3450 -0.0911  0.2811
14267S        S21071  11.910   7.520  17.755 -0.1472 -0.3625 -0.1382
14268S        S21072   0.316  11.644  19.033 -0.0685  0.0297 -0.0260
14269S        S21073   5.175  11.239  21.968  0.0008 -0.3233 -0.9559
14270S        S21074   9.222  10.357  17.420  0.4446 -0.0248  0.3420
14271S        S21075   6.955   8.119  25.113  0.6293  0.2722 -0.1881
14272S        S21076   1.369   7.196  12.530 -0.2601  0.4387 -0.6213
14273S        S21077   3.721   4.355  14.352 -0.3589  0.0681  0.1206
14274S        S21078  12.123   6.013  11.596 -0.2757 -0.3058  0.1458
14275S        S21079   3.085   5.715  29.079 -0.0192  0.2628 -0.2833
14276S        S21080   5.990   3.264  22.973  0.7247 -0.0590  0.2257
14277S        S21081   3.989   7.490  19.272  0.3865 -0.0303  0.1094
14278S        S21082   2.153   2.116  23.148  0.5740  0.2321  0.2445
14279S        S21083   8.099  11.112  13.458  0.0760  0.0474 -0.1763
14280S        S21084   6.526   1.978  14.351  0.4473  0.1839 -0.1407
14281S        S21085   3.817   6.448  12.298 -0.3355 -0.5283 -0.3120
14282S        S21086  10.822   7.784  24.235  0.3377  0.3871  0.5203
14283S        S21087   2.359  11.821  16.533  0.0494 -0.5120  0.4513
14284S        S21088   5.813   1.787  25.764 -0.7470 -0.3867 -0.2545
14285S        S21089   9.823  12.097  32.473 -0.3133  0.5688 -0.5305
14286S        S21090   6.912   3.392  16.350 -0.1935  0.0692  0.0605
14287S        S21091   7.789   5.409  27.326  0.3171  0.1312  0.0385
14288S        S21092   0.606   5.334  14.862 -0.3212  0.2542 -0.0942
14289S        S21093   3.434  12.183  19.447 -0.1930  0.5176 -0.5457
14290S        S21094   8.012  12.006  27.467 -0.0114  0.1770  0.1963
14291S        S21095   1.175   0.927  34.665  0.2044 -0.0294 -0.2147
14292S        S21096  10.305   6.151  14.160  0.0470  0.0864  0.1891
14293S        S21097   1.384   7.017  31.436  0.3212  0.0478 -0.3745
14294S        S21098   3.825   5.407  14.061 -0.2761  0.0858  0.2069
14295S        S21099   3.990  10.873  22.273  0.0947  0.0220  0.0557
14296S        S21100  11.528  12.120  14.450  0.5928  0.7866 -0.0399
14297S        S21101  10.038   7.088  22.419  0.3607 -0.2748  0.4078
14298S        S21102   1.565   0.391  15.125 -0.3182 -0.2173 -0.0933
14299S        S21103   7.068   2.710  26.818 -0.0369 -0.0195  0.2403
14300S        S21104  12.226   7.254  13.401 -0.8072  0.5137 -0.4793
14301S        S21105  11.227  12.146  10.793 -0.0572  0.1330 -0.5027
14302S        S21106   9.809   2.553  17.155 -0.0067  0.2290  0.1845
14303S        S21107   5.579  10.320  15.497  0.3013  0.0156  0.4044
14304S        S21108   2.828   0.543  26.522 -0.4867  0.0111 -0.6186
14305S        S21109   3.462  11.028  20.515 -0.5397 -0.6250  0.4064
14306S        S21110   9.242   3.253  23.509  0.2881  0.6348 -0.5387
14307S        S21111   6.311   9.501  20.714  0.4036 -0.0890  0.6037
14308S        S21112   7.301   2.161  12.109  0.7085  0.2750  0.3884
14309S        S21113   4.435   7.623  18.622 -0.0294 -0.7812  0.1966
14310S        S21114  11.888  11.844  25.251  0.1736  0.0018 -0.2620
14311S        S21115   8.518   3.526  18.418  0.5240  0.1180  0.1267
14312S        S21116   0.354   8.610  30.335 -0.0938 -0.2866  0.3601
14313S        S21117   8.359   2.645  18.401  0.2434 -0.1932  0.1613
14314S        S21118   0.566   6.012  20.287 -0.4985 -0.2718  0.2903
14315S        S21119  10.251  10.107  12.545 -0.0410  0.4423  0.4723
14316S        S21120   7.033   2.361  24.170  0.2658 -0.5172  0.1347
14317S        S21121   4.101   9.737  20.604  0.1744 -0.2847 -0.2211
14318S        S21122   8.517   4.472  26.570 -0.3655 -0.1812 -0.4082
14319S        S21123   9.464   6.595  14.563  0.2458 -0.7080  0.4692
14320S        S21124  12.120  10.427  37.783 -0.1452 -0.0069  0.1170
14321S        S21125  10.306   4.368  18.957  0.1918  0.0190 -0.4956
14322S        S21126  11.974  11.630  17.487 -0.0185 -0.1294 -0.4628
14323S        S21127   8.721   3.925  11.630  0.0692  0.3272 -0.2274
14324S        S21128   1.177   6.590  16.536  0.1075 -0.0665 -0.1470
14325S        S21129  12.023   7.592  13.706  0.1009 -0.2673  0.1625
14326S        S21130   0.666   2.782  15.062 -0.2344 -0.7936 -0.3375
14327S        S21131  11.022   8.183  14.213 -0.2257  0.2959  0.6303
14328S        S21132   0.440   6.533  13.695 -0.2238 -0.1515 -0.0715
14329S        S21133   1.871   6.362  11.114  0.2911  0.2438 -0.0081
14330S        S21134   3.800   9.907  13.320 -0.3789 -0.3914 -0.2684
14331S        S21135   9.427   0.986  22.972 -0.3111  0.0973 -0.0577
14332S        S21136   7.730  11.832  11.578 -0.5850 -0.1978 -0.4133
14333S        S21137   3.147   0.981  16.836  0.0525  0.2622  0.0867
14334S        S21138   3.078   0.009  30.457  0.6612  0.6945  0.4653
14335S        S21139   0.643   1.667  16.989  0.0301 -0.3941  0.5804
14336S        S21140   5.125   8.876  18.000  0.0196  0.1434 -0.4284
14337S        S21141   8.636   9.780  11.837  0.0435 -0.7035  0.5534
14338S        S21142   5.433   5.146  12.041  0.4126  0.2795 -0.6837
14339S        S21143  10.165  10.574  21.124 -0.0323 -0.0845 -0.7513
14340S        S21144  10.530   3.802  26.930  0.1412  0.0631 -0.4052
14341S        S21145   0.150   4.811  13.466 -0.5798 -0.1369  0.1331
14342S        S21146   4.258  11.443  13.301  0.2345 -0.4500 -0.3545
14343S        S21147   2.655   3.469  11.989 -0.1343 -0.0131  0.0068
14344S        S21148  12.320   5.132  14.790  0.2804  0.5390 -0.0517
14345S        S21149   2.682   3.551  22.237 -0.0001 -0.1359  0.4587
14346S        S21150   7.427   4.909  14.606 -0.2659  0.0586 -0.0931
14347S        S21151   9.532   6.416  19.100  0.2996 -0.6087 -0.3721
14348S        S21152   7.572   5.005  14.092  0.0776  0.3856  0.2440
14349S        S21153   2.705   8.727  19.588 -0.3215 -0.3556 -0.5318
14350S        S21154   7.742   8.489  24.866  0.1858  0.5073  0.3701
14351S        S21155  12.340   1.963  20.007 -0.0820  0.0678  0.2480
14352S        S21156  12.236   3.641  13.453 -0.0260  0.2407  0.1573
14353S        S21157  12.246  10.633  17.786 -0.3628 -0.4403  0.0148
14354S        S21158  11.228   8.607  14.710  0.4649  0.1201 -0.0072
14355S        S21159   1.010  12.013  26.967  0.2046  0.2294 -0.0010
14356S        S21160  11.383   5.474  19.156  0.2994  0.2463  0.3224
14357S        S21161   9.242   1.636  17.737 -0.1453  0.3556  0.3619
14358S        S21162   7.327   0.059  26.569  0.0100  0.1847 -0.2365
14359S        S21163   0.715  10.996  17.889 -0.2045  0.6458  0.0352
14360S        S21164   3.867   0.386  44.657  0.2374  0.4162  0.4997
14361S        S21165  10.745   6.414  16.732 -0.8673 -0.4837  0.0891
14362S        S21166   8.347  10.069  17.263 -0.2634  0.4630 -0.4578
14363S        S21167   2.454   0.385  38.531  0.1106 -0.1514  0.0720
14364S        S21168   7.619   2.921  31.544  0.0501 -0.5153 -0.4930
14365S        S21169   0.259   9.952  16.352  0.7816  0.0836  0.2642
14366S        S21170   1.254   8.324  13.980 -0.2989  0.1446  0.3624
14367S        S21171  11.872   9.826  26.359 -0.2131 -1.0618  0.4407
14368S        S21172   4.436   8.665  23.019 -0.1021 -0.2219 -0.3238
14369S        S21173  11.654   0.054  21.214  0.4929  0.0390 -0.3871
14370S        S21174   4.684  10.355  15.294  0.2623  0.0468 -0.1452
14371S        S21175   3.179   8.820  19.564 -0.1508  0.0083  0.1422
14372S        S21176   0.652   5.269  26.105 -0.5694 -0.1925 -0.5042
14373S        S21177   4.093   2.053  13.855 -0.3306 -0.1293  0.1065
14374S        S21178  10.324   5.116  25.127  0.1102 -0.4767  0.1068
14375S        S21179   0.154   3.846  14.985 -0.0424 -0.3778 -0.4521
14376S        S21180   9.036   5.613  28.420  0.0023 -0.4566 -0.1726
14377S        S21181   6.644   2.375  25.277  0.3288  0.1166 -0.0235
14378S        S21182  12.250  11.627  19.440  0.2113 -0.4818  0.3350
14379S        S21183   9.495   1.305  27.186  0.0444  0.2487 -0.1536
14380S        S21184   9.348   6.686  17.304  0.0695 -0.0182  0.1068
14381S        S21185   3.026   3.446  46.833 -0.0948 -0.5274  0.1063
14382S        S21186   4.572   8.856  11.753  0.8888 -0.2981 -0.9142
14383S        S21187   9.791   4.619  24.509  0.0203 -0.0206 -0.4769
14384S        S21188  10.697   9.728  15.833  0.3194  0.3765  0.2782
14385S        S21189   0.624   2.857  23.822 -0.0403 -0.3488 -0.0507
14386S        S21190   2.885   9.726  25.705 -0.0748  0.7869 -0.3063
14387S        S21191   3.081   5.487  25.904 -0.0125 -0.3228 -0.2279
14388S        S21192   0.631   4.012  27.026  0.5929 -0.3094 -0.1101
14389S        S21193   8.809   8.255  13.641  0.3479 -0.3387 -0.4600
14390S        S21194  10.488  11.533  25.596  0.0553  0.5770 -0.0300
14391S        S21195  10.971   6.565  10.882 -0.3279  0.4413  0.0227
14392S        S21196   4.587  10.319  12.815 -0.0702  0.2246  0.0972
14393S        S21197   9.067   5.543  24.937  0.4599 -0.1081 -0.0621
14394S        S21198   6.999  10.435  12.497  0.3974  0.0430 -0.1990
14395S        S21199   4.298   0.093  18.045 -0.0814  0.5032  0.1813
14396S        S21200  11.639   3.378  26.109 -0.2307 -0.2456 -0.0330
14397S        S21201   3.155   0.568  24.034  0.3298  0.2322  0.1168
14398S        S21202   7.334   1.463  27.904 -0.4413 -0.0340  0.5565
14399S        S21203  10.545   3.666  21.025  0.3120 -0.2574 -0.5852
14400S        S21204   2.101   0.163  20.032  0.0833  0.0974  0.1615
14401S        S21205   2.364   2.448  27.710 -0.0754 -0.1401  0.1430
14402S        S21206   9.352   3.087  29.550  0.0207 -0.3834 -0.0991
14403S        S21207  10.886   8.723  27.398 -0.4100  0.5914 -0.7770
14404S        S21208   5.830   2.192  11.703  0.2109  0.3834  0.1343
14405S        S21209   5.497   2.254  17.111  0.3354 -0.1362  0.1187
14406S        S21210   6.526   6.714  15.916 -0.2492 -0.1689 -0.2807
14407S        S21211  10.106  10.169  16.709 -0.4020 -0.1738  0.2484
14408S        S21212   2.383  12.186  15.624  0.0765 -0.3902 -0.2355
14409S        S21213   1.890   4.724  11.959  0.2744 -0.1718  0.2438
14410S        S21214   5.323  10.943  19.394 -0.1363 -0.3937 -0.3418
14411S        S21215   5.386   6.952  18.224  0.1265  0.0296 -0.1995
14412S        S21216   4.928   7.917  27.435 -0.8572 -0.0404  0.3490
14413S        S21217   1.424   7.824  18.285 -0.1207 -0.1192 -0.2191
14414S        S21218   9.174   3.505  25.930 -0.2123 -0.6469 -0.1607
14415S        S21219   2.792   9.866  22.824  0.2119  0.5695  0.5914
14416S        S21220   6.292   7.262  20.392 -0.0607 -0.3708 -0.1691
14417S        S21221   8.196  11.888  21.256  0.1924 -0.1051 -0.7964
14418S        S21222   9.688   7.044  14.723  0.1915  0.2881 -0.4025
14419S        S21223   4.172   2.031  13.121  0.0567 -0.5549 -0.0190
14420S        S21224   4.484   7.554  17.119  0.4737 -0.3180 -0.2617
14421S        S21225   8.540   6.652  15.960  0.3963 -0.2682 -0.1861
14422S        S21226   2.017   8.185  12.188 -0.3375 -0.6419 -0.2335
14423S        S21227   8.995  10.283  28.651  0.3834 -0.5180 -0.1441
14424S        S21228   5.513  11.405  18.416  0.0337 -0.1041  0.1120
14425S        S21229   0.677   7.616  18.936  0.3239  0.5925 -0.3635
14426S        S21230  10.138   6.825  21.956 -0.3265 -0.4414 -0.1480
14427S        S21231  11.384   2.075  17.291  0.4800  0.6765  0.1196
14428S        S21232  11.395   7.011  22.532  0.2287 -0.4140 -0.0269
14429S        S21233   3.494   6.667  49.784  0.1154  0.0813  0.3771
14430S        S21234   2.094   2.155  34.073  0.0641  0.1914  0.1226
14431S        S21235  10.483   7.276  14.559  0.6517 -0.1058  0.1720
14432S        S21236   3.460  11.560  15.022  0.3461  0.3130 -0.1074
14433S        S21237   6.585   5.126  22.243 -0.0543 -0.2557  0.1486
14434S        S21238   9.751   3.995  14.372 -0.1801  0.1489  0.1539
14435S        S21239  11.279   4.568  18.793 -0.2366 -0.1763 -0.2214
14436S        S21240   5.334   2.822  19.621  0.1638 -0.3164 -0.3650
14437S        S21241   2.363   2.258  19.422 -0.5738 -0.0296 -0.0883
14438S        S21242   8.022   5.078  30.796  0.2221 -0.4898  0.0064
14439S        S21243   7.498   2.598  11.880 -0.0660  0.2409  0.0950
14440S        S21244   4.894   4.335  21.744 -0.0842 -0.8151 -0.2444
14441S        S21245   4.391   2.331  16.218  0.3367 -0.7609 -0.0545
14442S        S21246   6.503   5.474  23.309 -0.2429 -0.2027  0.2496
14443S        S21247   8.159   0.497  28.163  0.5791  0.4307  0.1541
14444S        S21248  10.510   2.863  13.577 -0.2132  0.0839 -0.1816
14445S        S21249   0.731  11.963  23.256 -0.2730 -0.3560 -0.1039
14446S        S21250   9.677   6.858  25.364 -0.1217  0.2390  0.4454
14447S        S21251   2.137   0.743  14.191  0.0061  0.0799  0.0609
14448S        S21252  10.248   4.585  31.679 -0.2814  0.2750 -0.0410
14449S        S21253   6.562   6.386  16.383 -0.2794  0.1150  0.4116
14450S        S21254   2.597   4.092  23.799 -0.3056  0.2680  0.0769
14451S        S21255   8.282  11.370  25.427 -0.4284  0.0814 -0.6090
14452S        S21256   1.029  10.271  26.333  0.2823 -0.2518 -0.0766
14453S        S21257   5.663   6.625  18.573 -0.2770 -0.1441  0.1957
14454S        S21258   0.628   6.711  12.316  0.2192 -0.6625  0.0856
14455S        S21259   4.332   7.133   5.659 -0.1105 -0.1310  0.0479
14456S        S21260  12.181   1.675  31.717 -0.0096 -0.0493 -0.0451
14457S        S21261   0.079   9.734  15.474 -0.2876  0.0569  0.2625
14458S        S21262   9.279   9.679  26.368 -0.1478 -0.1700  0.2670
14459S        S21263   9.617   4.132  26.272  0.4302  0.0667 -0.1891
14460S        S21264   0.127   7.327  22.717  0.2531  0.2491  0.4110
14461S        S21265   6.768   8.681  16.804  0.6359 -0.4548  0.2827
14462S        S21266   4.294   4.067  18.749  0.3581  0.5196 -0.0239
14463S        S21267   5.420   9.429  22.475  0.3097  0.3587  0.0682
14464S        S21268   7.971   1.067  24.393 -0.2860 -0.2468  0.0165
14465S        S21269  10.368   8.275  15.520 -0.0515 -0.0527  0.4748
14466S        S21270   4.781   1.067  26.117 -0.0268  0.0374  0.1271
14467S        S21271   7.282   3.356  21.112 -0.2134 -0.1079  0.4470
14468S        S21272   2.540   1.173  27.651  0.5571  0.1865 -0.2549
14469S        S21273   2.896   5.920  13.856 -0.0460 -0.0018 -0.0734
14470S        S21274   3.739   1.528  15.250  0.3867  0.3567  0.0837
14471S        S21275   0.079   1.210  29.722 -0.2236 -0.0707 -0.1273
14472S        S21276  10.999   7.410  13.251 -0.5545  0.4312 -0.6486
14473S        S21277   9.434   2.246  13.457 -0.1620 -0.1553  0.5008
14474S        S21278   3.258   4.851  31.100 -0.1400  0.6306 -0.5962
14475S        S21279   9.339   4.715  13.902 -0.6416 -0.0804 -0.1392
14476S        S21280   1.299   9.992  11.180  0.4787 -0.1129 -0.0149
14477S        S21281   0.505  10.003  25.235  0.0286  0.0354  0.1506
14478S        S21282   9.057   7.242  13.795  0.2589  0.2333 -0.5318
14479S        S21283   8.720   2.353  32.526  0.2392  0.1273 -0.0121
14480S        S21284   0.291   2.645  27.081  0.0749 -0.3763 -0.0676
14481S        S21285  10.197   4.190  14.115  0.0085  0.0463  0.1332
14482S        S21286   9.564  12.127  25.009  0.2402 -0.0720  0.4082
14483S        S21287   1.710   5.028  24.608 -0.3817  0.4328 -0.0335
14484S        S21288   5.396   8.756  13.684  0.1996 -0.0361 -0.3436
14485S        S21289   5.659   7.553  19.065 -0.3710 -0.1604 -0.6935
14486S        S21290   1.197   6.210  14.972  0.0879 -0.1532  0.5439
14487S        S21291   5.317   6.328  23.154 -0.3270 -0.4798  0.2284
14488S        S21292   5.675  10.481  21.487  0.1224  0.1226 -0.8287
14489S        S21293   3.321  10.998  16.492  0.0034  0.3290  0.0697
14490S        S21294   9.900   0.671  22.737  0.3320  0.4628  0.2684
14491S        S21295   7.575   1.813  31.640  0.2138  0.1191 -0.2107
14492S        S21296  11.467  11.565  11.377 -0.2376 -0.0382 -0.6806
14493S        S21297   6.489   5.353  15.093  0.1740  0.0390  0.4194
14494S        S21298  10.317   4.072  19.897  0.2242 -0.1554 -0.5261
14495S        S21299   4.831   4.914  23.595  0.1679  0.4011  0.0264
14496S        S21300   6.315   5.411  13.066 -0.1994 -0.3422 -0.1610
14497S        S21301  11.384   7.255  12.885  0.3715 -0.1518 -0.2443
14498S        S21302   4.082   9.448  19.933  0.4912 -0.1004  0.0293
14499S        S21303   7.397   1.641  32.097  0.2097 -0.1269  0.0524
14500S        S21304   9.831   2.343  16.323  0.2459  0.1051 -0.1591
14501S        S21305   8.106   6.116  29.734 -0.7508 -0.3587 -0.2046
14502S        S21306   7.076   1.777  41.796  0.0984 -0.4982  0.7916
14503S        S21307   0.817   7.346  19.861 -0.0118  0.2946 -0.0048
14504S        S21308   0.073   9.747  30.904  0.3748 -0.0494 -0.2016
14505S        S21309   3.615   2.533  22.892 -0.6794  0.0472 -0.0593
14506S        S21310   5.328   4.474  15.022  0.3541  0.1240 -0.3683
14507S        S21311  11.584  11.203  16.764 -0.1878 -0.5216 -0.1271
14508S        S21312  10.234   7.332  15.660 -0.9488  0.1897  0.0038
14509S        S21313   8.207   9.569  17.619 -0.0295  0.1172  0.1921
14510S        S21314   8.771   5.383  14.279 -0.0190 -0.3761 -0.3433
14511S        S21315   5.242   9.492  11.157 -0.2445 -0.2938 -0.0561
14512S        S21316   0.617  10.070  26.604  0.3499 -0.3696  0.2110
14513S        S21317   1.894   3.838  29.509 -0.0311  0.6222 -0.1419
14514S        S21318   1.103   8.800  29.167 -0.7382 -0.3354 -0.2163
14515S        S21319   5.173   4.553  13.255 -0.3292 -0.1248 -0.0563
14516S        S21320   9.464   9.788  21.735 -0.3006  0.0094 -1.0435
14517S        S21321   8.682   1.647  16.568 -0.3013 -0.1910 -0.4485
14518S        S21322   8.945   3.416  19.730  0.1516 -0.3206  0.0816
14519S        S21323  11.451   6.003  29.133 -0.1795  0.5251 -0.3169
14520S        S21324   0.860   9.280  47.475 -0.2714 -0.3148  0.1862
14521S        S21325   6.546   8.368  28.764  0.0058 -0.2741  0.1481
14522S        S21326   1.520  11.312  18.015 -0.2297  0.3146  0.1101
14523S        S21327   1.376   1.635  24.440  0.0910 -0.2635 -0.1592
14524S        S21328   4.548   5.355  15.938  0.2375 -0.2141  0.5613
14525S        S21329   0.190   5.433  18.298 -0.0421 -0.4922 -0.1045
14526S        S21330   0.920   7.402  17.839 -0.2449  0.1103 -0.2504
14527S        S21331   9.506   8.745  26.003  0.3414  0.0781  0.2112
14528S        S21332   3.187   7.676  20.607 -0.3682 -0.2358 -0.4846
14529S        S21333   2.517  11.530  29.958  0.2455 -0.1741  0.1329
14530S        S21334  12.310   3.627  20.368  0.5353 -0.5250  0.0834
14531S        S21335   1.311   2.235  13.575 -0.1228 -0.1240 -0.2149
14532S        S21336   4.709   7.260  16.802 -0.0750 -0.2280  0.1913
14533S        S21337  10.185   2.706  31.926 -0.8070 -0.1095  0.5477
14534S        S21338   1.033  11.582  15.911 -0.5324  0.2166  0.2032
14535S        S21339   1.415  10.014  24.116  0.5335  0.0482 -0.5781
14536S        S21340   7.564   5.877  12.338  0.3197 -0.4028 -0.3538
14537S        S21341   9.876  10.690  27.475 -0.4059  0.2825  0.3239
14538S        S21342   2.779   8.186  30.118 -0.1981 -0.2150  0.1743
14539S        S21343  10.285   2.028  24.439  0.3180  0.3445  0.0478
14540S        S21344  11.373   2.053  12.628  0.0598 -0.3489  0.1137
14541S        S21345   4.944   2.594  13.431  0.3610  0.0078 -0.1559
14542S        S21346   2.476   2.845  30.108 -0.6614 -0.4689  0.4644
14543S        S21347  10.391   8.486  16.383 -0.1410 -0.3785  0.3050
14544S        S21348   6.990   0.689  13.246  0.5433 -0.2281  0.1584
14545S        S21349   5.979   3.093  26.306  0.0933 -0.0390 -0.0740
14546S        S21350   5.444   0.696  24.273 -0.2678  0.1443 -0.1805
14547S        S21351   6.429   1.670  16.840  0.0230 -0.3206 -0.1449
14548S        S21352   8.884   3.505  27.330  0.2654 -0.0502 -0.3780
14549S        S21353   5.467   2.029  16.583  0.7326  0.1147  0.3513
14550S        S21354   8.832   5.903  17.987 -0.0843  0.1614 -0.2435
14551S        S21355   6.657   2.919  19.960 -0.5978  0.0902  0.2282
14552S        S21356   6.602   4.220  13.089 -0.0695  0.3680  0.1223
14553S        S21357   1.175  10.471  24.075 -0.4957  0.2570  0.6328
14554S        S21358   5.317   0.155  26.924 -0.2634 -0.1316 -0.4292
14555S        S21359   1.460  10.384  29.976  0.2392 -0.4513 -0.2918
14556S        S21360   6.987   9.113  12.521 -0.4462 -0.0054 -0.3053
14557S        S21361  11.026   4.554  22.941  0.1031 -0.2639  0.0091
14558S        S21362   7.329   6.051  26.140 -0.3155 -0.0464  0.8721
14559S        S21363   9.550   6.534  14.024 -0.2274  0.1919  0.0290
14560S        S21364   0.880   4.385  30.145  0.0593 -0.3641 -1.3284
14561S        S21365   8.572   5.430  15.675 -0.1759  0.1739  0.2872
14562S        S21366  11.290   4.248  27.221  0.7969  0.4211 -0.0019
14563S        S21367   7.430   3.382  18.343 -0.1939 -0.3650 -0.2264
14564S        S21368   8.117   2.975  16.716 -0.0270 -0.1458 -0.3989
14565S        S21369   9.733   8.840  23.562 -0.1078 -0.2102  0.3601
14566S        S21370  11.106   1.322  28.938 -0.1342 -0.1587  0.0429
14567S        S21371   9.438   0.274  19.592 -0.1799  0.0894  0.4003
14568S        S21372   7.121   4.379  11.490  0.4086  0.3016  0.2447
14569S        S21373   6.882   8.174  13.365  0.0587 -0.1873  0.2202
14570S        S21374   9.360   6.821  12.577 -0.0693 -0.2244  0.3973
14571S        S21375   7.586   0.890  12.373 -0.4738  0.0869 -0.0752
14572S        S21376  10.851   4.685  17.160 -0.2658 -0.1643  0.1926
14573S        S21377   2.596   4.128  27.972 -0.2985  0.3977 -0.1127
14574S        S21378   2.727   8.836  12.342  0.0973  0.1312 -0.0616
14575S        S21379   2.818   5.386  13.848  0.0538  0.0056 -0.8091
14576S        S21380   6.204   7.026  15.503  0.0426 -0.1886  0.1929
14577S        S21381   7.824  10.643  30.791  0.4270  0.1142 -0.6022
14578S        S21382   4.068   8.912  19.214 -0.0540 -0.1974  0.5027
14579S        S21383   9.033  12.004  24.824 -0.4783  0.1780  0.1475
14580S        S21384   1.185  11.539  20.263 -0.1118  0.2384 -0.3130
14581S        S21385   1.872   1.319  21.475  0.7891 -0.4843  0.0861
14582S        S21386   7.245   5.984  23.623 -0.1838 -0.4831 -0.1777
14583S        S21387   3.830  12.331  28.736  0.2597 -0.1557  0.0040
14584S        S21388  10.987   8.912  10.900  0.5264  0.2554 -0.2639
14585S        S21389   8.555   3.895  17.214 -0.4076 -0.0679 -0.4692
14586S        S21390   1.872   2.774  27.573  0.4320  0.4485  0.2292
14587S        S21391   3.195   2.543  16.418  0.1701 -0.0264 -0.0980
14588S        S21392  11.995   1.356  32.163 -0.3692 -0.1613  0.2942
14589S        S21393  10.818   9.537  14.634  0.0125  0.4669  0.0863
14590S        S21394  11.038   5.464  27.841 -0.1201 -0.0784 -0.5550
14591S        S21395  10.560  11.138  16.969  0.4829 -0.3145  0.1072
14592S        S21396   7.965  10.322  20.080  0.0191 -0.7462  0.0676
14593S        S21397   2.982  10.023  29.580  0.2610  0.2853  0.2086
14594S        S21398   7.122   0.562  19.824 -0.1590  0.2505 -0.4205
14595S        S21399   1.853   0.906  28.443 -0.3288 -0.3701  0.5670
14596S        S21400   0.450   5.625  17.823  0.1130  0.2625  0.5191
14597S        S21401   3.873   0.165  18.570 -0.0618  0.2905 -0.2339
14598S        S21402  12.199   3.943  16.378  0.1374  0.0882 -0.6895
14599S        S21403   8.834  11.778  14.154 -0.1850  0.0358 -0.3463
14600S        S21404   8.973   2.765  32.433  0.3388 -0.0056 -0.2859
14601S        S21405   3.072   4.909  14.387 -0.1811 -0.3857  0.2658
14602S        S21406   6.664   4.369  26.346  0.2872 -0.2531 -0.1471
14603S        S21407   4.953   9.571  20.009 -0.0305 -0.2597 -0.0564
14604S        S21408   2.965   0.301  38.285  0.0262  0.3983  0.0621
14605S        S21409   3.954   0.626  21.559  0.1449 -0.2524 -0.2788
14606S        S21410   2.157   8.368  29.432  0.3590  0.2764 -0.1258
14607S        S21411   7.847  10.859  27.936  0.5619 -0.6348  0.1122
14608S        S21412  12.258   5.760  18.059  0.7882  0.0210 -0.0960
14609S        S21413   3.728  11.935  13.765  0.1929 -0.3080  0.5169
14610S        S21414   2.741   2.385  27.101 -0.3503 -0.2417  0.2639
14611S        S21415   2.010  11.012  12.839  0.1917 -0.3705 -0.0707
14612S        S21416  12.250  12.187  26.026 -0.4635 -0.4061 -0.4628
14613S        S21417   8.290   2.930  19.283 -0.2306 -0.2162 -0.8286
14614S        S21418   8.500   9.878  15.576  0.0558 -0.3881 -0.3112
14615S        S21419   1.439   9.679  23.735  0.0273 -0.1788 -0.2218
14616S        S21420   4.630   9.804  12.717  0.0501 -0.0825  0.3239
14617S        S21421   8.289   6.008  17.626  0.1636 -0.0194  0.1967
14618S        S21422   2.318   0.584  27.089 -0.2052  0.1173 -0.0015
14619S        S21423   5.483   5.730  16.322 -0.1021 -0.6937  0.2351
14620S        S21424   1.988   4.608  22.276  0.1047  0.4875  0.2367
14621S        S21425   1.805   4.884  12.952  0.0332  0.0391  0.1349
14622S        S21426   1.006  10.531  19.817 -0.0968  0.1964  0.0616
14623S        S21427  11.660   5.551  23.772  0.0600  0.0428 -0.2170
14624S        S21428   4.298   5.672  26.166 -0.0372 -0.8467  0.0021
14625S        S21429   4.160   1.573  22.630  0.1808  0.3989  0.0010
14626S        S21430   5.501  10.116  11.744  0.0750  0.2922 -0.4716
14627S        S21431   5.076   8.747  11.960 -0.3202 -0.4014  0.2423
14628S        S21432   4.973   1.596  20.647 -0.1880 -0.4212 -0.1171
14629S        S21433   6.987   4.357  16.328 -0.2450  0.1589 -0.0569
14630S        S21434   7.395   3.715  15.300 -0.5303 -0.2869 -0.4985
14631S        S21435   4.978   8.545  30.755  0.2775  0.2055  0.2096
14632S        S21436  10.532   6.589   8.956 -0.0575  0.1754 -0.0225
14633S        S21437  12.063  10.100  29.872 -0.5680 -0.2512 -0.3802
14634S        S21438   2.927   5.244  13.286 -0.0545  0.4350 -0.1834
14635S        S21439   6.101   4.527  21.027 -0.2363  0.1719 -0.0935
14636S        S21440  10.065   7.424  30.540 -0.4931  0.4492  0.4604
14637S        S21441   8.318  11.798  11.743 -0.0555  0.1835 -0.3843
14638S        S21442   3.558   1.662  20.876 -0.2563  0.3590  0.0836
14639S        S21443   6.958   9.186  16.078 -0.1790 -0.4107 -0.3504
14640S        S21444  12.156   1.397  15.570  0.4350 -0.1746  0.2397
14641S        S21445   0.282   5.305  24.756 -0.0084 -0.0089  0.3309
14642S        S21446   4.127   9.620  17.967 -0.1631 -0.6722 -0.0453
14643S        S21447   8.390   4.479  27.068 -0.0900 -0.2579  0.1830
14644S        S21448   8.482   3.579  13.054  0.2249 -0.1700  0.2908
14645S        S21449   0.292   5.913  26.573  0.1600 -0.0053  0.0043
14646S        S21450   1.407   6.402  11.341  0.3678 -0.1197  0.0497
14647S        S21451   1.817  11.124  11.346 -0.2377  0.3187 -0.2124
14648S        S21452   2.502  10.861  28.872 -0.0854  0.2554 -0.5748
14649S        S21453   0.046   4.696  14.560  0.4924 -0.0435  0.0568
14650S        S21454   0.854   6.788  13.254 -0.0793 -0.0525  0.2320
14651S        S21455   3.154   2.787  24.878 -0.0252 -0.2133  0.3949
14652S        S21456  11.517   2.675  26.663 -0.2559 -0.0599  0.2364
14653S        S21457   1.524   1.229  23.405 -0.1043 -0.7853 -0.5617
14654S        S21458   3.907   4.137  16.799 -0.1051  0.1463 -0.6667
14655S        S21459  10.434   9.813  18.968  0.2224 -0.0865 -0.5554
14656S        S21460   3.204   5.095  24.695 -0.3267 -0.1449  0.4323
14657S        S21461   9.163   6.756  31.423  0.2290  0.0718  0.0855
14658S        S21462   7.321   5.276  20.725  0.1200 -0.4176  0.0862
14659S        S21463  12.263   7.293  15.846  0.2230 -0.6312  0.1309
14660S        S21464   0.651  11.360  14.055  0.4392 -0.2012 -0.0244
14661S        S21465   0.416   3.571  15.516  0.4229  0.1145  0.0121
14662S        S21466   8.250   6.447  13.712 -0.2410  0.2107  0.2324
14663S        S21467  10.932   3.240  16.256  0.0435  0.5209  0.1784
14664S        S21468   3.185   1.362  28.267  0.4289 -0.3014  0.5701
14665S        S21469   4.833   0.272  23.810 -0.0000  0.1244  0.0373
14666S        S21470   8.501   8.203  14.558 -0.1504  0.0901  0.0599
14667S        S21471  10.238   8.663  29.578 -0.2931 -0.1500  0.4810
14668S        S21472   4.096   3.057  25.162 -0.1570  0.4648  0.4775
14669S        S21473   5.070   1.652  22.707  0.3369 -0.2483 -0.2443
14670S        S21474  10.059   7.054  18.541  0.6781  0.1332 -0.2164
14671S        S21475   1.970   9.540  22.012  0.4932 -0.1531 -0.3059
14672S        S21476   0.743   7.512  17.387  0.2185 -0.7373  0.0605
14673S        S21477   9.828   8.967   8.172 -0.0511 -0.0485  0.0139
14674S        S21478   8.262   0.408  11.238  0.1706 -0.1531  0.0208
14675S        S21479   4.276   8.602  12.092 -0.2993  0.0704 -0.3248
14676S        S21480   7.774   2.027  25.796 -0.2455 -0.5377  0.3304
14677S        S21481   0.065   9.815  11.334 -0.1653 -0.3194 -0.2785
14678S        S21482   8.257   2.055  26.416 -0.1306  0.0200  0.2231
14679S        S21483   8.576   5.913  23.006 -0.1535  0.3254  0.2804
14680S        S21484   7.832   5.824  14.483 -0.1001  0.1502 -0.3239
14681S        S21485  10.082   7.479  14.347  0.2430 -0.3669 -0.5849
14682S        S21486   8.842   7.513  18.598 -0.1326  0.3426 -0.1434
14683S        S21487   1.128  11.540  35.556 -0.2987  0.0829  0.4652
14684S        S21488   9.574   7.651  16.008  0.3087  0.1108  0.4764
14685S        S21489   5.749   8.144  17.025  0.0485  0.0266 -0.0903
14686S        S21490   4.218   7.253  20.598  0.1186  0.0089  0.2810
14687S        S21491   7.929   6.814  36.458  0.7139  0.1483  1.3146
14688S        S21492   1.462   4.539  17.357  0.6740  0.5026 -0.1169
14689S        S21493   8.936   1.856  32.541 -0.1312 -0.2589  0.3350
14690S        S21494  11.639   9.120  15.287 -0.1606 -0.1962 -0.1101
14691S        S21495   8.421   7.762  21.843  0.0010 -0.5756  0.1004
14692S        S21496  12.210   7.015  11.637  0.0553 -0.3026  0.1427
14693S        S21497   7.794  10.737  26.036  0.2706  0.1169  0.3968
14694S        S21498   8.953   4.356  14.085 -0.0542  0.0605  0.0909
14695S        S21499   5.725   1.844  26.230  0.1582  0.0564  0.3515
14696S        S21500   7.540   3.421  22.152 -0.0454 -0.1338  0.3052
14697S        S21501   9.745   8.407  11.772 -0.3139 -0.1215 -0.2046
14698S        S21502   6.331  10.830  19.514  0.2132 -0.3939  0.5202
14699S        S21503   4.918   7.074  21.382  0.2456 -0.1123 -0.2421
14700S        S21504   6.938   0.899  14.322 -0.0455 -0.4944 -0.0502
14701S        S21505  12.124   1.457   9.472  0.0241 -0.1821  0.1804
14702S        S21506   5.805   4.440  22.434 -0.5592 -0.4278  0.4631
14703S        S21507   4.705   1.334  18.551  0.0570  0.2071 -0.2855
14704S        S21508   3.972   2.568  11.773 -0.1172  0.2436 -0.3653
14705S        S21509   1.025   7.111  23.158  0.0863  0.3634  0.1703
14706S        S21510  11.218  11.714  20.478  0.4116  0.0188  0.4484
14707S        S21511  11.169   9.007  11.446 -0.2453  0.4884 -0.0018
14708S        S21512   4.463   1.011  21.730  0.3350 -0.0787 -0.3583
14709S        S21513  11.948   1.579  48.486 -0.1029 -0.0508 -0.5120
14710S        S21514   4.664   9.272  25.166 -0.0438 -0.1220 -0.2796
14711S        S21515   3.951  11.769  26.702  0.3490  0.0184 -0.2358
14712S        S21516   3.047   2.956  22.527  0.1419  0.5337 -0.4573
14713S        S21517  11.331   6.098  14.217  0.0959 -0.0467 -0.0357
14714S        S21518  10.876  11.122  18.744  0.3378 -0.2843 -0.3193
14715S        S21519   4.711   1.254  13.397  0.2181 -0.4883  0.0751
14716S        S21520  11.683   3.108  24.366  0.3649  0.5741 -0.2613
14717S        S21521   6.628   6.902  12.721  0.5063  0.1783 -0.1465
14718S        S21522   1.241   0.735  26.322 -0.2239 -0.2766  0.2039
14719S        S21523   7.275  10.891  17.210  0.0673 -0.0245 -0.0460
14720S        S21524   2.326   2.917  15.404  0.1653  0.4954  0.4640
14721S        S21525  10.120  12.093  24.391  0.1906  0.1112 -0.3521
14722S        S21526   2.740   5.064  18.968 -0.0072 -0.0490 -0.5967
14723S        S21527   2.100   5.459  18.545  0.0342  0.4021 -0.0075
14724S        S21528   8.578   5.269  25.100 -0.0152  0.1960 -0.0848
14725S        S21529   4.585   0.174  21.489 -0.0028 -0.4696 -0.0066
14726S        S21530  10.308   5.717  26.591 -0.4624 -0.0979 -0.2296
14727S        S21531  11.161  12.002  27.179 -0.1284 -0.1390  0.3399
14728S        S21532   6.888   5.736  11.687 -0.3589 -0.0128 -0.3659
14729S        S21533   7.801  10.611  21.478  0.2569  0.1268  0.0664
14730S        S21534  10.090   0.882  11.769 -0.5694  0.4820 -0.0575
14731S        S21535   4.721   5.960  21.338  0.1795 -0.0297  0.1353
14732S        S21536   6.350   2.672  14.326 -0.0020  0.0802 -0.4295
14733S        S21537   4.300   2.560  28.746 -0.1471 -0.0862  0.8875
14734S        S21538   8.473   4.706  24.399  0.0787 -0.6201 -0.4181
14735S        S21539   9.190   2.667  19.338  0.1232 -0.0859 -0.1086
14736S        S21540  11.156   9.309  15.456  0.4469 -0.1685  0.0392
14737S        S21541   9.748   4.202  18.243  0.5216 -0.2256 -0.0516
14738S        S21542  10.618  11.938  32.314 -0.1074 -0.4117 -0.4159
14739S        S21543   2.415   0.765  19.799 -0.1370 -0.1958  0.0943
14740S        S21544   8.722   2.501  13.934  0.1305  0.4171 -0.1666
14741S        S21545   0.482  11.670  26.057  0.4358  0.2064 -0.3703
14742S        S21546   3.940   0.737  28.842 -0.1179  0.4468 -0.1155
14743S        S21547   0.073   5.479  14.202 -0.1432 -0.0885  0.2323
14744S        S21548   7.890   1.975  11.872 -0.0942 -0.1815  0.0391
14745S        S21549  10.250   3.784  31.454 -0.1383  0.0717  0.6053
14746S        S21550  12.344   9.201  14.248 -0.4620 -0.1250  0.0286
14747S        S21551  10.533   0.309  18.906  0.3644 -0.1490 -0.3328
14748S        S21552   8.263   6.701  29.215  0.1437 -0.0476  0.0581
14749S        S21553   6.600   4.317  11.423  0.2490  0.2795  0.1252
14750S        S21554   8.575   2.479  31.108  0.4094  0.1163 -0.2126
14751S        S21555   6.312   6.903  29.291 -0.3193 -0.7086 -0.2200
14752S        S21556   0.784   8.020  14.213  0.3178 -0.2524 -0.2115
14753S        S21557   3.096   0.035  13.351 -0.0510 -0.6785  0.0199
14754S        S21558  11.834  10.285  26.121 -0.3012  0.0631  0.0549
14755S        S21559   3.465   0.610  22.484  0.0844  0.0492 -0.1897
14756S        S21560  11.247   7.185  12.251  0.6063  0.0707 -0.2553
14757S        S21561   2.552   8.144  25.332  0.5582  0.2927  0.4530
14758S        S21562   2.789   5.851  12.088 -0.0842  0.0169 -0.1159
14759S        S21563   8.059   1.069  14.808 -0.3072  0.0546  0.4016
14760S        S21564   4.377   2.592  18.000  0.0595  0.3643 -0.1249
14761S        S21565   7.245   4.463  20.036 -0.7012 -0.1391 -0.4192
14762S        S21566   9.834   9.329  25.642 -0.2921 -0.1088  0.0442
14763S        S21567   6.640   1.778  26.312 -0.1849  0.1442 -0.0992
14764S        S21568   6.326   2.110  24.202  0.3296 -0.5949  0.1133
14765S        S21569   9.525   4.437  15.171 -0.2951  0.4496 -0.4260
14766S        S21570   6.266  10.768  20.620 -0.4258  0.1362 -0.4926
14767S        S21571  11.521   2.528  12.800  0.1024 -0.4905  0.0517
14768S        S21572  10.483  12.050  19.076 -0.2943 -0.0977  0.7721
14769S        S21573   2.622   1.734  13.464 -0.1180 -0.0192  0.7206
14770S        S21574   4.820   3.180  20.481 -0.3192 -0.0111  0.0219
14771S        S21575   5.862   3.055  24.422  0.2973 -0.4415  0.5339
14772S        S21576   4.152   1.406  22.149  0.3704 -0.4172 -0.0661
14773S        S21577   8.850   7.613  29.410 -0.3709  0.0553  0.0508
14774S        S21578   2.498   3.173  29.174 -0.2641 -0.3760  0.3976
14775S        S21579   0.138   8.926  24.357 -0.4197 -0.2003 -0.1220
14776S        S21580  11.563   6.609  21.917  0.3687  0.0031 -0.3010
14777S        S21581   0.147  11.810  23.248  0.1015  0.4087 -0.5499
14778S        S21582   3.877   1.823  18.821  0.7106  0.0949 -0.1729
14779S        S21583  10.479   8.069  16.686  0.4602 -0.0451 -0.1036
14780S        S21584   3.434   3.725  16.725  0.2016 -0.2926 -0.5162
14781S        S21585   1.522   4.110  14.606  0.1240  0.0337  0.3239
14782S        S21586   9.870   2.170  26.463 -0.1441  0.0129 -0.3969
14783S        S21587  12.018   5.445  31.183  0.0915  0.4880 -0.2476
14784S        S21588   9.665   1.814  16.383  0.2786 -0.0823  0.1617
14785S        S21589   0.621   4.663  22.466 -0.0298 -0.2807 -0.2684
14786S        S21590   8.379   5.926  24.348 -0.2356 -0.3227 -0.0033
14787S        S21591   3.037   8.783  21.575  0.2241  0.3023  0.0956
14788S        S21592   1.223   7.708  20.598  0.4437  0.3391  0.0847
14789S        S21593   5.822   0.299  13.593  0.0923 -0.0987  0.1438
14790S        S21594   3.089  11.165  28.019 -0.0093  0.4282 -0.3177
14791S        S21595   4.955   7.327  20.863  0.6712 -0.1800  0.3722
14792S        S21596   1.463   1.736  16.534  0.2468  0.2059  0.0361
14793S        S21597   3.453   6.621  17.534  0.4453 -0.2869  0.0126
14794S        S21598   5.413   7.014  20.100  0.2405 -0.0029 -0.2053
14795S        S21599   0.235   8.196  13.653  0.0210 -0.1458 -0.1750
14796S        S21600   0.724   2.555  27.253  0.3881 -0.2857 -0.2263
14797S        S21601   9.528  11.182  19.554  0.0787  0.1184  0.2083
14798S        S21602   8.225   6.919  13.598  0.6094  0.2967  0.0982
14799S        S21603   8.104   4.609  14.092 -0.1131 -0.1818 -0.0305
14800S        S21604  11.548  11.777  15.174  0.3254  0.2493 -0.4667
14801S        S21605  11.523   2.785  30.019  0.2330 -0.2035  0.0586
14802S        S21606   3.793   7.863   1.114  0.2830 -0.2093  0.3638
14803S        S21607   3.053   7.830   9.971 -0.2926  0.1022  0.4074
14804S        S21608  10.147   4.766  13.920  0.5087  0.2762  0.3755
14805S        S21609   0.302   7.307  11.290 -0.0141  0.2338 -0.5525
14806S        S21610   4.781   4.519  19.761  0.4571 -0.5999  0.0448
14807S        S21611   7.028   9.420  21.813 -0.3243 -0.2776  0.4850
14808S        S21612   9.670  10.425  14.737 -0.1931 -0.2953  0.3748
14809S        S21613   5.144   3.371  23.096  0.7470 -0.2748  0.2926
14810S        S21614   8.088   7.872  11.658  0.1773 -0.1103 -0.1873
14811S        S21615   3.698  11.680  26.189 -0.3804  0.6960  0.9848
14812S        S21616  11.834  11.849  14.702  0.2187  0.1369 -0.1923
14813S        S21617   5.968   0.541  21.241 -0.1108 -0.6309 -0.0857
14814S        S21618   5.588   1.378  25.456 -0.3461  0.3149 -0.0400
14815S        S21619  10.599  10.807  22.691 -0.3340  0.0251  0.1641
14816S        S21620   5.339   0.105  28.234 -0.1931  0.1007 -0.2355
14817S        S21621   7.726   1.673   9.563  0.1667  0.0727  0.6151
14818S        S21622  11.077   1.752  17.482 -0.2415 -0.3012  0.6766
14819S        S21623   7.537   3.499  45.245  0.0223 -0.1077  0.0779
14820S        S21624   6.306   8.066  19.739 -0.2310  0.2464  0.3819
14821S        S21625   1.878   5.080  26.111  0.0579  0.0538  0.0706
14822S        S21626   6.038   6.453  26.447  0.3885 -0.4099  0.0180
14823S        S21627  11.873   6.652  29.495  0.4084 -0.0787  0.1099
14824S        S21628   1.207   7.955  28.438  0.0931 -0.8942  0.4342
14825S        S21629   0.018   1.965  26.254  0.1693  0.0117  0.2448
14826S        S21630  12.341   5.269  15.698  0.1193  0.5052 -0.3369
14827S        S21631  11.649   8.171  24.504 -0.3445  0.4851  0.8112
14828S        S21632   6.525  10.474  12.867  0.3584  0.0219  0.1830
14829S        S21633  10.012  10.052  27.602  0.1547  0.1293  0.1737
14830S        S21634  11.660   5.469  13.526  0.0352 -0.2021 -0.2201
14831S        S21635   8.740   6.697  12.291  0.1359  0.3506  0.8207
14832S        S21636   3.051   7.971  31.051  0.2949  0.2825  0.5116
14833S        S21637   9.089   2.751  24.727 -0.6540  0.6103 -0.0589
14834S        S21638   7.246   0.220  28.388 -0.0351  0.1670 -0.3023
14835S        S21639   8.253   2.377  26.068 -0.0861 -0.0324  0.2897
14836S        S21640  10.332   8.608  14.089  0.0803  0.1148  0.4143
14837S        S21641   4.057   8.486  13.870  0.0219  0.1704  0.0746
14838S        S21642   1.806   0.273  26.723  0.2712  0.3139 -0.2088
14839S        S21643   9.932   7.921  15.740 -0.1506  0.2055  0.1618
14840S        S21644   6.963   7.917  19.795 -0.0798 -0.0222  0.6973
14841S        S21645   5.381   5.777  25.052 -0.2940  0.5876  0.1060
14842S        S21646  10.862   5.040  15.497 -0.0859 -0.5609 -0.1318
14843S        S21647  11.314   5.602  26.548  0.0525 -0.4965 -0.2153
14844S        S21648   8.512   1.593  28.980  0.2839 -0.3510 -0.0092
14845S        S21649   7.818   8.956  22.448 -0.3728  0.0221  0.0071
14846S        S21650  12.006  11.773  31.756  0.1358  0.0720 -0.1007
14847S        S21651  10.741   0.530  31.869  0.1399 -0.3527 -0.1076
14848S        S21652   1.817   9.749  11.043  0.0087  0.2921  0.2835
14849S        S21653   3.862   5.787  15.829  0.0434 -0.4837 -0.1984
14850S        S21654   2.086   1.813  21.522 -0.1221  0.3923  0.1088
14851S        S21655   7.546   5.408  30.182 -0.3466  0.7235  0.1511
14852S        S21656   4.278   1.706  18.374 -0.1570  0.3117 -0.0620
14853S        S21657   2.952   7.043  29.531 -0.5949  0.1808  0.3639
14854S        S21658   5.151   7.229  47.247 -0.2671  0.2872 -0.0938
14855S        S21659   1.507   8.299  23.387  0.0552  0.3414 -0.1629
14856S        S21660   7.510   2.766  25.197 -0.1355 -0.1345 -0.2314
14857S        S21661   6.187   0.789  11.922 -0.5781 -0.0933  0.1829
14858S        S21662   6.821   1.505  24.803 -0.0094 -0.2910  0.2439
14859S        S21663  10.750   8.578  14.357  0.2734  0.0823  0.2982
14860S        S21664  11.585   3.955  25.060  0.3344  0.2573 -0.2384
14861S        S21665   7.983   4.443  22.773  0.3442  0.3272  0.2919
14862S        S21666  11.896   7.327  12.757 -0.3328 -0.3024  0.6435
14863S        S21667   7.109   8.387  21.964 -0.4209  0.3134 -0.0329
14864S        S21668  11.479   7.852  17.581  0.1012  0.2183 -0.0942
14865S        S21669   5.996   1.470  12.512  0.0697 -0.1813  0.4361
14866S        S21670   3.706  10.297  30.055 -0.4202 -0.2219  0.2464
14867S        S21671   5.943   9.158  14.959 -0.4321  0.0491 -0.0970
14868S        S21672   4.111   2.450  17.581 -0.2416  0.3726 -0.0416
14869S        S21673   3.880  11.468  15.306 -0.1998  0.2313  0.3795
14870S        S21674   0.096   8.690  17.713  0.6913 -0.0020 -0.3314
14871S        S21675   8.264  10.785  15.274 -0.1015  0.9318 -0.2024
14872S        S21676   3.309   7.027  12.529 -0.2741 -0.0948  0.2945
14873S        S21677   8.411   7.389  18.142  0.0236 -0.0633 -0.2336
14874S        S21678  12.072   7.019  18.475 -0.0216 -0.3967  0.1073
14875S        S21679   7.592   3.190  27.941  0.2221 -0.3394 -0.1507
14876S        S21680   5.888   7.073  20.613  0.5838  0.5864 -0.4741
14877S        S21681  10.179   6.240  18.346  0.0852 -0.3868 -0.1507
14878S        S21682   6.028  10.733  12.569  0.2441  0.1503 -0.3216
14879S        S21683   9.201   1.404  12.669 -0.2812 -0.8180 -0.4738
14880S        S21684   0.576   7.149  16.365  0.0487 -0.0189  0.0323
14881S        S21685   8.567   7.975  21.393 -0.2223  0.6358 -0.4272
14882S        S21686   9.555   4.812  12.963  0.0867  0.0395  0.6870
14883S        S21687   9.496   1.750  24.101 -0.2158  0.0022 -0.2898
14884S        S21688   0.375   4.977   0.219 -0.3238 -0.0790  0.2430
14885S        S21689   5.486   4.565  14.512 -0.1039  0.3073  0.1657
14886S        S21690   7.187  11.417  14.937  0.4873 -0.0766 -0.0987
14887S        S21691   6.935  10.715  16.403  0.3168 -0.5549 -0.2910
14888S        S21692   4.764   7.325  22.327 -0.1542 -0.1072  0.2369
14889S        S21693   7.198   9.129  23.538  0.1008  0.4274 -0.1180
14890S        S21694  11.893   0.944  25.833  0.6129 -0.1172  0.2947
14891S        S21695   3.451   1.246  12.847 -0.1456 -0.4314  0.2216
14892S        S21696   8.295   5.192  17.357  0.0469 -0.0769 -0.9446
14893S        S21697   7.635   0.060  26.149 -0.4365 -0.3722 -0.5653
14894S        S21698  11.137   9.860  27.714  0.1319  0.4228  0.0739
14895S        S21699   6.219   1.566  27.942 -0.2434 -0.1276  0.0450
14896S        S21700   1.782  12.110  18.446 -0.3669  0.0957 -0.3130
14897S        S21701   9.644   1.915  23.531  0.2683  0.2547  0.7737
14898S        S21702   0.559  10.366  16.676  0.3185 -0.2772  0.0529
14899S        S21703   6.876  10.936  15.967 -0.4369 -0.1074 -0.4901
14900S        S21704   6.854   5.921  19.313  0.5227  0.1042  0.6776
14901S        S21705   8.192   2.568  14.289 -0.1322  0.2426  0.3024
14902S        S21706   4.615   6.006  20.816  0.3092 -0.5877 -0.0156
14903S        S21707   9.732   4.982  19.123 -0.5021  0.2548 -0.0874
14904S        S21708   7.250   7.629  49.579 -0.0949 -0.2504  0.2387
14905S        S21709   4.130   7.932  10.663 -0.1187  0.3997  0.0986
14906S        S21710   6.374   1.214  18.185 -0.8109 -0.5769 -0.4071
14907S        S21711   2.166   3.773  12.168  0.6244 -0.0161 -0.2512
14908S        S21712   1.401   9.944  28.645 -0.2771  0.9809  0.3457
14909S        S21713   0.852   7.079  30.671  0.8840  0.0755 -0.2400
14910S        S21714  10.584  10.967  21.087 -0.1311  0.1154 -0.4064
14911S        S21715  10.016   7.028  30.951 -0.5984 -0.5128  0.1329
14912S        S21716   2.987   6.029  24.001  0.4815  0.3755 -0.2674
14913S        S21717   0.010  10.908  18.182  0.0535  0.7040  0.2144
14914S        S21718   2.872   3.223  12.429 -0.2515 -0.1884 -0.2935
14915S        S21719  11.008   7.998  31.102  0.2352  0.1886  0.9781
14916S        S21720   9.682   9.310  21.910 -0.1296 -0.4263 -0.1698
14917S        S21721   3.597   5.107  17.293  0.5364 -0.1417  0.1722
14918S        S21722   4.250   6.011  17.254  0.0514 -0.1948  0.1922
14919S        S21723  10.969   2.724  26.738 -0.5592  0.2174 -0.2069
14920S        S21724   3.428   5.516  27.986 -0.3821  0.4786  0.1040
14921S        S21725   4.537   5.193  20.668 -0.0837 -0.0407  0.2540
14922S        S21726  11.617   8.363  29.861 -0.1839  0.7353  0.0461
14923S        S21727   8.804  10.111  14.941  0.2157  0.5651 -0.3189
14924S        S21728   9.389   5.314  24.496 -0.4097 -0.2954 -0.1597
14925S        S21729   7.272   2.410  12.648 -0.1225 -0.2205 -0.0251
14926S        S21730  10.906   8.603  17.947 -0.4599  0.0140  0.4759
14927S        S21731   7.454   6.423  14.527 -0.1429 -0.3269  0.1399
14928S        S21732   5.618   8.625  18.531 -0.2277  0.1109 -0.0932
14929S        S21733   5.419   8.178  27.580 -0.1230  0.4834 -0.0527
14930S        S21734   8.780  10.482  17.593  0.0122 -0.0959  0.3330
14931S        S21735   9.767   4.478  12.513 -0.4985  0.2729  0.4275
14932S        S21736   2.624   3.820  28.960  0.2114  0.1421 -0.0080
14933S        S21737   0.509   3.085  15.617 -0.2427  0.1007  0.0366
14934S        S21738  10.774   9.353  24.023 -0.4095 -0.0686 -0.0788
14935S        S21739  11.827   7.760  37.888 -0.1270  0.2642 -0.4209
14936S        S21740   2.304   4.294  14.942 -0.3298  0.0697 -0.0351
14937S        S21741   6.882   3.347  22.735  0.0142 -0.1323  0.3832
14938S        S21742   9.236   3.229  15.002 -0.6933  0.4924  0.0409
14939S        S21743   7.277   2.235  26.779 -0.3351 -0.1865  0.3954
14940S        S21744   6.710   4.910  26.638 -0.8354  0.3056  0.5273
14941S        S21745   3.549   7.210  15.041  0.0919  0.0988  0.2461
14942S        S21746   8.083   6.923  27.840 -0.1841 -0.3036  0.2678
14943S        S21747   2.044   4.416  26.927 -0.7613  0.1059 -1.1230
14944S        S21748   1.320  11.720  17.569  0.5114  0.1768 -0.1454
14945S        S21749   1.503   7.283  26.507  0.0754  0.5021  0.3917
14946S        S21750   6.994   3.312  24.673  0.5872  0.1000  0.5271
14947S        S21751   1.932   1.510  13.992  0.0120 -0.0175  0.3560
14948S        S21752   5.428   2.372  26.666  0.0630  0.4499  0.1178
14949S        S21753   7.357   7.993  13.372 -0.5078 -0.0829 -0.1762
14950S        S21754   5.245   6.796  27.651 -0.3507 -0.6742  0.2939
14951S        S21755  10.536  12.124  18.577 -0.8083  0.0952 -0.0058
14952S        S21756   9.859   8.662  18.594 -0.1679  0.1934 -0.5370
14953S        S21757  10.410  11.885  29.721  0.2058  0.5617  0.4227
14954S        S21758   0.174   3.140  20.405  0.5397 -0.2833 -0.4721
14955S        S21759  12.168   3.204  25.719 -0.4744  0.1863  0.2866
14956S        S21760  10.573   4.116  28.718 -0.3006  0.1400  0.5759
14957S        S21761   0.957  10.160  12.053  0.1846 -0.0265  0.2398
14958S        S21762  11.910   6.606  13.452  0.1043 -0.0301  0.0111
14959S        S21763   2.252   9.907  26.682  0.1959  0.0915  0.2260
14960S        S21764   1.579   0.470  28.648 -0.5764 -0.3043 -0.0571
14961S        S21765   4.623   8.235   0.831 -0.4429  0.1580  0.0010
14962S        S21766   5.049   9.865  17.765  0.2561 -0.4581 -0.1307
14963S        S21767   7.986   5.646  18.601 -0.2725 -0.3035  0.3967
14964S        S21768   6.720   6.033  18.791  0.1033  0.2293 -0.4050
14965S        S21769   3.622   5.140  15.092 -0.1218 -0.0948  0.3530
14966S        S21770   1.196   7.752  17.320  0.4752 -0.1422 -0.4052
14967S        S21771   0.151   3.263  24.944  0.0293 -0.1604 -0.5182
14968S        S21772  10.000   8.957  24.601 -0.0304  0.8207 -0.0976
14969S        S21773   1.226   9.274  31.597 -0.1596 -0.5332  1.0659
14970S        S21774  11.398   9.348  18.593  0.1308  0.0944 -0.1459
14971S        S21775   3.419  11.966  26.499 -0.1055 -0.0805 -0.4671
14972S        S21776  11.416   9.374  26.539 -0.6273 -0.3657  0.1220
14973S        S21777   5.791   8.486  25.257  0.1553  0.2146 -0.6248
14974S        S21778  11.649   9.356  27.789  0.4530  0.6940  0.6747
14975S        S21779   6.689   4.002  22.280 -0.0810 -0.0379 -0.1302
14976S        S21780   5.718   3.245  14.687 -0.0819 -0.2035 -0.0346
14977S        S21781   6.251   9.015  28.159 -0.6848 -0.1152 -0.5171
14978S        S21782   6.522   1.347  27.275 -0.4896  0.2001 -1.3143
14979S        S21783  10.052   6.599  32.147 -0.2887 -0.1700  0.8156
14980S        S21784  10.053   5.434  25.889  0.6039  0.3188  0.3041
14981S        S21785  11.196   9.339  14.039 -0.2552 -0.1357  0.1820
14982S        S21786   6.042   5.443  22.943  0.2863  0.1334  0.1923
14983S        S21787  12.078  11.116  22.720 -0.4711 -0.0075  0.0987
14984S        S21788   7.456   9.066  29.980 -0.0191 -0.0441 -0.1452
14985S        S21789   3.745   1.395  17.970  0.1790 -0.2884  0.0801
14986S        S21790  11.256   0.014  18.613 -0.0246  0.7952  0.0288
14987S        S21791   0.486  11.285  23.626 -0.2430 -0.3512 -0.0221
14988S        S21792  10.095   4.071  25.594  0.4666 -0.5434 -0.0885
14989S        S21793  11.407   3.355  24.722 -0.2774  0.1560 -0.8511
14990S        S21794   4.600  10.475  16.854 -0.0060  0.3787  0.2497
14991S        S21795   9.372   3.166  31.885 -0.5563  0.3430 -0.2401
14992S        S21796   2.128   2.429  30.298  0.4068 -0.5608  0.0878
14993S        S21797   2.569   3.657  13.081 -0.4868  0.3932  0.0490
14994S        S21798   6.361  10.157  32.208  0.4506 -0.5464 -0.3602
14995S        S21799  10.907   7.425  16.394  0.3493 -0.3445  0.1224
14996S        S21800  11.034   9.114  13.632  0.0814 -0.3390  0.3696
14997S        S21801   4.540   7.627  23.332 -0.3869  0.4157  0.2171
14998S        S21802  12.340   5.049  26.827 -0.6190  0.2240 -0.4752
14999S        S21803   3.366   2.564  16.926 -0.2340 -0.6367  0.1894
15000S        S21804   0.913  10.777  26.331  0.2131  0.5124 -0.6789
15001S        S21805  10.299   2.563  16.425  0.2219  0.2984  0.2126
15002S        S21806   3.811  10.021  12.702  0.4403 -0.2310 -0.1430
15003S        S21807   4.040   9.744  24.752 -0.4641  0.0050 -0.1430
15004S        S21808   7.578  11.713  21.729  0.2909 -0.2998  0.3571
15005S        S21809   1.121  10.648  24.990  0.3644  0.3835 -0.3842
15006S        S21810  11.658   5.659  13.010  0.0350  0.6057 -0.1451
15007S        S21811   6.722   9.331  27.150 -0.1360  0.4311  0.1361
15008S        S21812   4.472   4.036  21.593  0.2659  0.2171  0.0266
15009S        S21813  10.389   9.951  14.090  0.5121  0.0531  0.2049
15010S        S21814   5.448   1.668  24.443  0.0619 -0.3170 -0.2348
15011S        S21815  10.718  10.818  26.974  0.2472 -0.4635 -0.4260
15012S        S21816   6.616   0.948  26.986 -0.5295  0.5268  0.8913
15013S        S21817   3.527   7.822  25.015 -0.7427 -0.1219  0.0156
15014S        S21818   6.624   5.401  17.869  0.2105  0.2055  0.0769
15015S        S21819   5.833   6.241  23.962  0.2485 -0.1770  0.1905
15016S        S21820   0.825   7.901  17.726 -0.2592  0.1840  0.0135
15017S        S21821   6.064   4.191  15.392 -0.0293  0.1051  0.1200
15018S        S21822  10.381   6.922  16.650  0.0301  0.3464 -0.1578
15019S        S21823   0.310   4.589  29.412  0.1483 -0.0241 -0.2573
15020S        S21824   1.790  12.180  26.425  0.2677 -0.1568 -0.1596
15021S        S21825   1.714  11.438  23.631  0.1441 -0.2186 -0.3790
15022S        S21826   2.186   9.137  23.765 -0.5611 -0.2629 -0.5114
15023S        S21827   4.216   5.966  28.112 -0.4403 -0.1344  0.3357
15024S        S21828   1.007   3.274  14.944 -0.0988 -0.2638  0.2116
15025S        S21829   2.199   8.228  11.627  0.1924 -0.1252 -0.0856
15026S        S21830   1.879   4.560  24.688  0.3267 -0.3345 -0.3629
15027S        S21831   1.700   1.720  26.154 -0.1762  0.1515 -0.0341
15028S        S21832   6.487   1.122  30.779 -0.0001  0.0490  1.2243
15029S        S21833   3.893   6.309  18.947  0.3766  0.2634  0.3411
15030S        S21834   8.127   9.087  17.508 -0.2098  0.2760  0.0338
15031S        S21835   4.197   2.250  12.666 -0.3296  0.2803  0.1368
15032S        S21836   6.230  11.104  25.372  0.1432  0.0045  0.0547
15033S        S21837  10.328   2.332  25.507  0.1501  0.1900  0.1515
15034S        S21838   3.458   0.591  20.188 -0.3055 -0.3708  0.1232
15035S        S21839  11.454   4.295  23.034 -0.5894  0.3569  0.0645
15036S        S21840   5.814   8.812  44.005 -0.1739  0.1564  0.4091
15037S        S21841   9.354   2.312  19.753 -0.1912 -0.0605 -0.0560
15038S        S21842   1.372   8.837  12.045  0.2057 -0.1647 -0.0846
15039S        S21843   5.359   3.201  23.868 -0.3886 -0.1690  0.1357
15040S        S21844   5.181   8.524  15.272 -0.0527  0.6152 -0.9324
15041S        S21845  12.158   6.478  22.194  0.3690  0.0231 -0.5188
15042S        S21846   1.047   7.901  14.786  0.4319 -0.3385  0.0583
15043S        S21847   8.708   8.558  15.566 -0.0173  0.0266 -0.0347
15044S        S21848  11.752   4.548  15.324 -0.1479  0.4470 -0.1688
15045S        S21849   2.463  11.839  18.888  0.0686 -0.2164  0.2084
15046S        S21850   6.179   5.420  19.989 -0.1195  0.1142 -0.0310
15047S        S21851   8.266   0.238  31.795 -0.2525  0.5715 -0.0419
15048S        S21852  10.425   6.484  19.451  0.0910 -0.5595  0.2325
15049S        S21853   3.361   4.893  17.736  0.5801 -0.2314 -0.2748
15050S        S21854   1.594   8.657  27.285 -0.0641  0.0389  0.3694
15051S        S21855  11.645   3.492  28.625  0.0504  0.1901  0.5037
15052S        S21856   8.696  11.763  22.414 -0.5759  0.1743 -0.8800
15053S        S21857   6.029  10.066  16.740  0.2587 -0.1067  0.2269
15054S        S21858   9.982   1.945  17.755 -0.2653  0.0215  0.1120
15055S        S21859   4.950  10.918  21.658  0.3566  0.0260 -0.3078
15056S        S21860  10.883   9.865  17.947  0.5008  0.2604  0.2269
15057S        S21861   2.790   0.046  16.445 -0.1823  0.0380  0.0471
15058S        S21862   0.004   5.637  11.451 -0.2229  0.2456  0.1002
15059S        S21863  11.299  12.107  11.417 -0.3847 -0.1422  0.0291
15060S        S21864   4.927   0.299  16.854  0.4820  0.5339  0.4816
15061S        S21865  11.935  11.488  15.284  0.1372 -0.1045 -0.0983
15062S        S21866   4.050   7.395  28.854 -0.3845  0.4012 -0.3323
15063S        S21867   1.237   8.889  15.158 -0.5052 -0.0252  0.3635
15064S        S21868  11.748  12.284  28.297  0.2750 -0.1177 -0.4592
15065S        S21869   3.646   8.518  22.689 -0.1810  0.0462  0.0833
15066S        S21870  10.381   5.295  19.248  0.1258 -0.1771 -0.3237
15067S        S21871   0.876   6.637  24.282  0.0344 -0.5432 -0.7341
15068S        S21872   4.336   7.633  16.626  0.0012 -0.0853  0.2076
15069S        S21873   7.814   7.011  15.100 -0.4210  0.3166 -0.1666
15070S        S21874   1.360   8.662  30.249  0.3944 -0.1026 -0.7086
15071S        S21875   0.434   7.641  18.018  0.2589  0.2315 -0.0648
15072S        S21876   9.654   7.341  22.367 -0.6732  0.1924 -0.0572
15073S        S21877   2.332   0.320  22.318  0.3863 -0.3321 -0.3142
15074S        S21878  10.154   8.035  32.426  0.1946  0.0999 -0.0992
15075S        S21879   0.506   4.566  19.363 -0.6842  0.3676 -0.1064
15076S        S21880   5.882   3.740  28.597 -0.0511  0.2154  0.7489
15077S        S21881   7.142   3.268  25.161  0.0785  0.2511  0.0741
15078S        S21882   0.214   5.287  15.235 -0.0661  0.7114 -0.0229
15079S        S21883   8.569   0.753  30.537 -0.7848  0.3492  0.4455
15080S        S21884  10.121  12.220  29.378  0.1141 -0.1484  0.0231
15081S        S21885  10.833   4.296  18.798 -0.1682  0.3936  0.1107
15082S        S21886   6.448   9.575   9.389  0.1261  0.4283  0.1786
15083S        S21887   0.908   4.759  25.097  0.0668  0.0459  0.2639
15084S        S21888   7.823   7.657  13.008 -0.0333 -0.2259  0.1026
15085S        S21889  12.187   1.356  26.748 -0.1877  0.0924 -0.8890
15086S        S21890  11.504   0.890  12.468  0.1987  0.1081  0.2833
15087S        S21891   6.476   2.462  42.082  0.0440 -0.3208 -0.3273
15088S        S21892   0.908  11.539  12.047  0.0735 -0.2063 -0.1933
15089S        S21893   3.713   9.322  34.695  0.2048 -0.2096  0.3241
15090S        S21894   6.746  10.512  30.353  0.1049 -0.3289  0.5313
15091S        S21895   7.236  12.310  25.022  0.0299  0.1899  0.1682
15092S        S21896   1.124   7.775  13.899 -0.0226 -0.2339  0.1063
15093S        S21897   2.026   9.370  14.460  0.1263  0.1635 -0.1025
15094S        S21898   1.487   1.767  46.768  0.2381  0.1527  0.0798
15095S        S21899  12.215   2.171  24.696 -0.2061 -0.4417 -0.0655
15096S        S21900   4.480   4.976  12.204  0.4301 -0.5032 -0.2147
15097S        S21901  11.015  11.954  18.868 -0.1512  0.2520  0.6289
15098S        S21902   8.435   4.354  17.138  0.3315 -0.1820 -0.1256
15099S        S21903   8.756  11.190  46.727  0.2158 -0.2664  0.1988
15100S        S21904   4.805   0.812  29.861 -0.2905 -0.0801  0.1108
15101S        S21905   8.173   9.800  19.217  0.0438 -0.1898 -0.3267
15102S        S21906   8.515   4.245  25.221 -0.3515 -0.0164  0.3923
15103S        S21907   2.734   2.643  16.627  0.4683  0.0770  0.3104
15104S        S21908   0.502   2.630  25.853  0.3220  0.3929 -0.3085
15105S        S21909  10.038   7.343  17.640 -0.0784  0.4065  0.2844
15106S        S21910   1.241   6.714  12.430 -0.1391 -0.2396  0.2026
15107S        S21911   8.159   7.588  26.561 -0.3891 -0.0690 -0.3736
15108S        S21912  11.507   4.358  11.298  0.1908 -0.0791  0.2057
15109S        S21913  11.631   1.378  12.618  0.0232 -0.5736  0.2932
15110S        S21914   8.716   9.162  12.861 -0.3575 -0.4985 -0.6361
15111S        S21915  11.138   7.812  18.337 -0.1075 -0.1537  0.4358
15112S        S21916   4.605   6.883  23.556  0.6750  0.0306 -0.2616
15113S        S21917   8.283  10.426  27.031 -0.7497  0.1211  0.1343
15114S        S21918   5.102   4.473  27.700 -0.3642 -0.0329 -0.2688
15115S        S21919   0.788   4.609  16.544  0.1119 -0.0742 -0.3349
15116S        S21920  10.898  10.650  31.407 -0.1441  0.3141  0.1224
15117S        S21921   4.786   1.244  32.795  0.5539  0.2365  0.7782
15118S        S21922  10.409   0.051  26.075  0.7186 -0.2944  0.1413
15119S        S21923   6.268   1.493  21.311 -0.0683  0.5693  0.3586
15120S        S21924   3.009   0.988  17.409 -0.3656 -0.0658 -0.0448
15121S        S21925   1.692   8.547  18.636  0.1300  0.2250 -0.2623
15122S        S21926  10.939   5.885  22.643  0.2412  0.2853 -0.2834
15123S        S21927   8.219   8.356  27.496  0.1341 -0.1758  0.1414
15124S        S21928   6.109   8.375  12.685  0.1788 -0.4708 -0.3170
15125S        S21929   1.420   4.433  22.156  0.5032 -0.0985  0.0750
15126S        S21930  11.298   9.585  28.994 -0.5187  0.6333  0.0119
15127S        S21931   4.239  10.907  13.615  0.4278 -0.4348 -0.0610
15128S        S21932   0.567   0.050  25.606  0.4468  0.4565  0.1385
15129S        S21933  10.503   3.263  12.651 -0.3160 -0.1523 -0.1819
15130S        S21934   5.171   0.337  11.934 -0.2637 -0.0537 -0.1461
15131S        S21935   4.418  11.306  11.852  0.2033 -0.3542 -0.1689
15132S        S21936   7.749   7.470  15.388 -0.5692  0.3539  0.2331
15133S        S21937   0.735   9.055  22.064  0.3838  0.4313 -0.0353
15134S        S21938  10.963   2.697  13.411 -0.6312 -0.1615  0.0452
15135S        S21939   3.062   8.443  25.321 -0.0150  0.2286 -0.5526
15136S        S21940   5.230  11.606  22.423 -0.5237  0.0151 -0.0274
15137S        S21941   0.362   9.450  15.175  0.0163  0.2396 -0.1596
15138S        S21942   2.378   9.057  17.496 -0.0297 -0.3380 -0.3378
15139S        S21943   6.760  10.735  22.235  0.0844 -0.0667  0.2653
15140S        S21944   7.207   2.397  18.398 -0.3726 -0.2538 -0.2532
15141S        S21945   8.844   6.182  37.412 -0.4043 -0.0281  0.5561
15142S        S21946  11.737   8.881  14.758 -0.1490  0.0935  0.3211
15143S        S21947  11.312   7.987  16.123  0.3083  0.4846 -0.7041
15144S        S21948   4.114   4.830  30.345  0.0106  0.4827 -0.1687
15145S        S21949   9.341  11.209  22.676 -0.4867 -0.1264  0.1103
15146S        S21950   8.439   2.206  20.606  0.7461 -0.4530  0.2316
15147S        S21951   6.511   9.631  17.949 -0.5183  0.1294 -0.0734
15148S        S21952  12.081  11.994  15.183  0.2599 -0.0676 -0.1929
15149S        S21953   0.596  10.728  13.219 -0.0816  0.0158  0.2048
15150S        S21954   6.309   2.365  29.438 -0.1822 -0.2092  0.2215
15151S        S21955   1.992   6.143  16.797  0.1243  0.5258  0.5259
15152S        S21956   0.819   3.810  18.610  0.0191  0.2002  0.4173
15153S        S21957   3.668   8.382  17.735 -0.4975 -0.2772 -0.4132
15154S        S21958   4.223   5.719  16.715 -0.0984 -0.4760 -0.6694
15155S        S21959   8.185   7.051  22.379  0.1770 -0.8354  0.1665
15156S        S21960   1.415   9.463  18.855 -0.3395 -0.5419 -0.4322
15157S        S21961   6.664   2.313  26.246 -0.5555  0.0591 -0.1285
15158S        S21962   3.263  11.377  12.022  0.2837 -0.2154 -0.1969
15159S        S21963   5.033   4.927  29.799  0.0572 -0.1113  0.0862
15160S        S21964   3.367   6.204  16.619  0.5172 -0.2649 -0.6488
15161S        S21965   9.049   9.194  27.452 -0.1850 -0.1294  0.2043
15162S        S21966   7.376   6.944  19.547 -0.0794  0.6009  0.0626
15163S        S21967  12.004   4.747  14.900 -0.3207  0.1274 -0.4208
15164S        S21968   1.859   8.143  26.182 -0.2081  0.1727 -0.5687
15165S        S21969  11.614  11.852  21.220 -0.0996 -0.1969  0.3641
15166S        S21970   0.059   9.479  18.486 -0.3590 -0.3683 -0.0203
15167S        S21971   7.949   8.674  25.860 -0.1185 -0.3479 -0.7566
15168S        S21972   0.328  11.779  18.292 -0.0478 -0.1462  0.0075
15169S        S21973   4.215   7.473  24.422  0.1451  0.1666  0.2727
15170S        S21974   0.468   0.785  16.742 -0.5027 -0.3440  0.0972
15171S        S21975   0.514   7.067  12.977  0.3172 -0.0215 -0.1388
15172S        S21976   2.483   7.248  25.501  0.7065  0.3832  0.1544
15173S        S21977  10.375   6.662  23.972  0.2642 -0.1053  0.0207
15174S        S21978   7.127   0.463  25.175  0.1000  0.1662  0.5610
15175S        S21979   9.455   0.874  25.909  0.2292 -0.4722 -0.3307
15176S        S21980   4.065   1.877  26.444 -0.9200 -0.3149 -0.7517
15177S        S21981   1.512   1.251  18.536 -0.2336 -0.8133  0.2042
15178S        S21982   0.694  12.284  16.327 -0.3551  0.2696  0.0643
15179S        S21983   2.275   6.465  15.119 -0.0324  0.1553  0.1784
15180S        S21984   0.152  10.817  44.596  0.1620  0.2168 -0.1758
15181S        S21985   5.625   5.829  21.963  0.2870  0.0485 -0.4383
15182S        S21986   7.205   2.681  17.009  0.2910  0.1226  0.0908
15183S        S21987  11.744   2.234  15.492  0.1351  0.5746  0.3241
15184S        S21988   5.619  10.681   9.244 -0.0497 -0.1501 -0.0944
15185S        S21989  10.307   2.992  26.422  0.4806 -0.3407 -0.1188
15186S        S21990   1.562   6.720  19.519 -0.3367  0.5503 -0.5129
15187S        S21991   7.407   2.535  17.892 -0.5544  0.7848 -0.4304
15188S        S21992  10.943   6.818  12.440 -0.0107  0.5106  0.3128
15189S        S21993   5.437   6.605  22.656 -0.1965 -0.2705  0.3273
15190S        S21994  10.011   1.589  26.632  0.3412  0.2541  0.0652
15191S        S21995   5.248   5.945  20.112  0.1175  0.3850 -0.2338
15192S        S21996   3.395   3.327  12.527 -0.1813  0.2628 -0.5040
15193S        S21997   5.016   8.442  21.488 -0.4187  0.1138 -0.7303
15194S        S21998   1.776   9.084  27.672  0.2689 -0.6468  0.4315
15195S        S21999   5.260   8.785  18.889  0.7570 -0.1354 -0.2548
15196S        S22000   0.538   9.482  21.071  0.0886 -0.3571 -0.0932
15197S        S22001   2.995   0.976  22.089  0.2926 -0.0663  0.2048
15198S        S22002   2.970   0.040  31.205 -0.6115 -0.1127 -0.5902
15199S        S22003   6.480   5.089  26.172 -0.0602  0.3050 -0.1255
15200S        S22004   1.654   0.946  29.567  0.4176 -0.0802 -0.1936
15201S        S22005   2.866  11.439  21.605  0.6373 -0.0970  0.0142
15202S        S22006   8.295   3.956  15.902  0.3529 -0.0600  0.2675
15203S        S22007   3.072   7.161  20.774 -0.3395 -0.3493 -0.3926
15204S        S22008   1.073   4.600  12.158 -0.0809  0.3428  0.4443
15205S        S22009   2.605   7.139  28.085  0.5030  0.6961 -0.2102
15206S        S22010   9.437   8.721  11.477 -0.4418 -0.0414  0.0678
15207S        S22011   8.127   5.303  30.311 -0.2353  0.0734 -0.2356
15208S        S22012   5.961   1.902  22.813 -0.2106  0.6739 -0.3893
15209S        S22013   8.628   6.892  22.521  0.2462 -0.2984  0.7308
15210S        S22014   0.236   0.702  24.769 -0.4813 -0.5545  0.4941
15211S        S22015   7.098   0.642  15.165 -0.2856  0.2821  0.4509
15212S        S22016   9.965   3.926  12.693 -0.0517 -0.3441  0.1893
15213S        S22017   6.238  10.959  19.989  0.4404 -0.6136 -0.5737
15214S        S22018  10.835   6.225  21.647 -0.0562  0.5211 -0.2895
15215S        S22019   0.461   1.039  18.338 -0.3783 -0.1633  0.2315
15216S        S22020  11.300   2.633  21.827  0.0188  0.0997  0.0969
15217S        S22021   2.311  10.123  22.665  0.9844  0.0705  0.0520
15218S        S22022   7.431   1.972  30.828 -1.3073 -0.4902 -0.2418
15219S        S22023  11.877   1.754  26.270 -0.3216  0.2699 -0.4150
15220S        S22024  10.739  10.602  24.505  0.2294 -0.3432 -0.0500
15221S        S22025   6.412  10.472  21.819  0.3562  0.2117 -0.4534
15222S        S22026   4.439   9.055  27.192  0.6909  0.0006  0.5413
15223S        S22027   8.119   4.724  20.872  0.1916 -0.4615 -0.0360
15224S        S22028   4.439   1.622  14.150  0.0429  0.1097  0.1268
15225S        S22029  11.606   9.249  19.493 -0.3827 -0.4772  0.4833
15226S        S22030   1.931   8.839  14.333 -0.1557 -0.3078  0.1073
15227S        S22031  10.024   7.394  23.390 -0.4088 -0.2029  0.4403
15228S        S22032   9.202   8.880  12.911 -0.3088 -0.0549 -0.5102
15229S        S22033   2.957  12.199  17.998  0.3608  0.1923  0.2026
15230S        S22034   9.192   0.986  22.171 -0.6940 -0.6007 -0.2017
15231S        S22035   6.750   9.169  14.518  0.0046  0.7189  0.0418
15232S        S22036   9.809  10.366  18.590 -0.5240  0.1961  0.2494
15233S        S22037   0.354  10.383  14.718 -0.2475 -0.2090  0.0242
15234S        S22038   2.300   7.330  26.582  0.0567  0.0086 -0.2649
15235S        S22039   7.720   0.308  21.716  0.2311 -0.3216  0.2665
15236S        S22040   6.393   2.304  13.388  0.0730  0.5963  0.4906
15237S        S22041  10.634   7.425  30.043  0.3396  0.6706  0.4185
15238S        S22042   4.809   8.250  43.934 -0.0900  0.0027  0.0307
15239S        S22043   5.528  10.449  31.019 -0.1831  0.0386 -0.0179
15240S        S22044  10.435   3.588  18.142 -0.0233  0.4074  0.1763
15241S        S22045   0.093   6.424  28.017  0.2033  0.3876  0.0572
15242S        S22046   3.574   0.072  18.102 -0.5316  0.5671  0.4398
15243S        S22047   3.821   8.806  17.439  0.0739 -0.2670  0.1770
15244S        S22048   7.759  10.681  27.368  0.4272 -0.1340 -0.2554
15245S        S22049   9.478   9.090  27.744  0.0167 -0.1154  0.0811
15246S        S22050   4.227   5.353  13.092  0.2686  0.2536 -0.0951
15247S        S22051   4.389   2.917  13.281  0.4446  0.1341  0.1630
15248S        S22052   1.593  11.018  25.044 -0.0450 -0.2402  0.8454
15249S        S22053   1.534   5.133  13.312 -0.1865 -0.1042 -0.4830
15250S        S22054   8.174   3.247  25.643  0.0946 -0.1152  0.1614
15251S        S22055   8.314   7.829  12.787  0.8968 -0.3571  0.1214
15252S        S22056   7.022  11.793  15.915 -0.0942  0.0452 -0.1336
15253S        S22057   6.433   2.430  14.770 -0.2133  0.1958 -0.2078
15254S        S22058   0.221   1.158  19.265  0.0339  0.0906 -0.0496
15255S        S22059   5.818   9.125  30.304  0.3807  0.5013  0.0577
15256S        S22060   7.520   0.246  20.674  0.4133 -0.0579 -0.9024
15257S        S22061   3.804   1.333  28.525  0.3752  0.3948  0.3238
15258S        S22062  12.085  10.791  27.154  0.3920  0.0370  0.5625
15259S        S22063  11.445   0.104  16.432 -0.2604  0.0513  0.2917
15260S        S22064   9.325   1.101  21.661  0.1402 -0.3050  0.3760
15261S        S22065   3.844   4.788  28.430  0.2123 -0.2730  0.3482
15262S        S22066   0.616   8.197  28.347 -0.0618  0.3409 -0.4966
15263S        S22067   0.427   4.523  28.892  0.4257 -0.3045 -0.2063
15264S        S22068   9.482   0.996  18.989 -0.1741 -0.0928 -0.1925
15265S        S22069   8.236   3.986  29.185  0.0093 -0.5528 -0.2149
15266S        S22070  11.718   7.192  12.287 -0.0863  0.0305  0.3803
15267S        S22071   7.988  10.039  27.193 -0.0556 -0.3751 -0.4492
15268S        S22072   1.192   9.735  13.836  0.5280  0.0719  0.3655
15269S        S22073   2.291   1.103  31.717  1.0702 -0.2854 -0.8865
15270S        S22074  10.064   1.381  30.149  0.2196 -0.3035  0.3117
15271S        S22075   6.683   2.156  23.773  0.0723 -0.5298 -0.4449
15272S        S22076   3.673   5.038  12.891 -0.0314  0.3492 -0.0537
15273S        S22077   3.852   8.454   7.714  0.1923 -0.0712 -0.0946
15274S        S22078   5.803   3.986  30.285  0.6179 -0.6064  0.0689
15275S        S22079   6.961   3.284  11.298  0.1501  0.0663 -0.0264
15276S        S22080  12.320   4.471  27.616  0.3685  0.2518  0.5031
15277S        S22081   4.888  12.292  22.516 -0.0993 -0.4334  0.3019
15278S        S22082   6.179   2.349  27.391  0.2095 -0.1504 -0.2692
15279S        S22083   9.715   6.063  22.182  0.3596  0.2757 -0.2740
15280S        S22084   3.738   6.705  19.324 -0.1838  0.1852  0.3459
15281S        S22085   9.442   3.966  15.573 -0.1088  0.1061  0.4945
15282S        S22086  10.378   0.528  28.630 -0.4378 -0.2605 -0.6844
15283S        S22087   8.562   9.223  29.724 -0.3975 -0.1241  0.0343
15284S        S22088   6.701   5.197  13.317 -0.5014 -0.1613 -0.1625
15285S        S22089   5.554   3.954  16.642 -0.3032  0.1152 -0.2457
15286S        S22090  10.257   8.864  23.439 -0.1719 -0.0427 -0.2323
15287S        S22091   0.542   2.062  32.521 -0.1105  0.1884 -0.0475
15288S        S22092   0.891   6.579  23.373  0.7176  0.8105  0.1163
15289S        S22093   5.820   1.021  11.647  0.2192 -0.2952  0.6728
15290S        S22094   8.593   1.890  12.737 -0.1161  0.5257 -0.1323
15291S        S22095   2.132   7.638  15.813  0.2868 -0.0557 -0.3402
15292S        S22096   7.732   2.568  14.690 -0.2150 -0.4369  0.1539
15293S        S22097   6.446   8.578  11.641  0.3127  0.0368 -0.3724
15294S        S22098   9.876  11.061  13.016 -0.0020  0.0028  0.2562
15295S        S22099   8.269   0.127  31.269  0.0480  0.0298 -0.0370
15296S        S22100  10.545   7.045  14.095 -0.1478  0.1278 -0.3119
15297S        S22101  10.219   4.031  14.665  0.1978 -0.3854  0.3378
15298S        S22102   9.744   0.718  19.378  0.1999 -0.3510  0.5100
15299S        S22103  11.132  12.074  17.804 -0.1042  0.0193 -0.3251
15300S        S22104   5.888   5.026  15.640 -0.2580 -0.2450 -0.3177
15301S        S22105   2.287   1.532  20.884 -0.3116  0.4152 -0.0234
15302S        S22106   2.513   8.314  13.921 -0.0070  0.1836 -0.0486
15303S        S22107   8.423   8.455  24.400 -0.0431  0.2568 -0.0980
15304S        S22108   7.889   8.374  11.637 -0.4481 -0.1121  0.0988
15305S        S22109   5.761   1.055  30.575 -0.1758 -0.0096 -0.4148
15306S        S22110   1.589   5.655  13.230  0.4928 -0.2639 -0.0032
15307S        S22111  12.159   3.996  25.780  0.2059  0.2757 -0.3577
15308S        S22112   5.152  10.698  22.056 -0.5655 -0.4715  0.0891
15309S        S22113   7.394   6.070  25.065 -0.2959 -0.0897  0.2717
15310S        S22114   0.901   1.229  25.432  0.1115 -0.0877 -0.5012
15311S        S22115   8.150   6.734  15.622 -0.0844  0.5004 -0.1196
15312S        S22116   5.202   5.055  16.074 -0.4178 -0.1134  0.0866
15313S        S22117   9.114   4.468  13.045  0.0713 -0.3139  0.2672
15314S        S22118   2.804   1.998  12.464  0.4577 -0.1339  0.0402
15315S        S22119   6.564   0.713  11.090 -0.4707 -0.2630 -0.4463
15316S        S22120  12.348   5.738  15.490  0.2258  0.6733  0.0124
15317S        S22121  11.815   4.700  19.248 -0.4154  0.0434  0.1452
15318S        S22122   4.539   8.130  24.225 -0.1494 -0.4073 -0.2150
15319S        S22123   6.798   4.719  17.066  0.2050  0.4116 -0.0021
15320S        S22124   4.055   1.131  27.778 -0.7661 -0.0069 -0.3270
15321S        S22125   5.516   0.399  19.291 -0.0698  0.1137  0.0852
15322S        S22126   6.343   3.751  14.008 -0.1548 -0.1949 -0.0553
15323S        S22127   3.243   1.968  19.526  0.0772  0.5722  0.2098
15324S        S22128   4.922   3.528  19.699 -0.2095 -0.0471 -0.6639
15325S        S22129   5.856   7.720  18.433 -0.1041  0.1439  0.1734
15326S        S22130  10.696   4.600  16.133 -0.0121 -0.1026 -0.1936
15327S        S22131  10.037  10.212  26.799  0.3319 -0.2783  0.1880
15328S        S22132   2.279   4.325  14.374  0.0490 -0.2333  0.0344
15329S        S22133   2.544   4.970  25.014  0.3451 -0.1288  0.2250
15330S        S22134   0.291   7.712  19.379 -0.1259  0.0739 -0.3583
15331S        S22135   1.256  10.124  30.527  0.2832  0.1136 -0.1200
15332S        S22136   2.104   3.221  18.241 -0.2215  0.3620  0.2141
15333S        S22137  10.590  10.637  18.847  0.2094  0.1798 -0.5667
15334S        S22138   1.734   6.682  13.409  0.3038 -0.2690  0.1373
15335S        S22139   4.057   4.517  26.102 -0.7219 -0.0614 -0.1877
15336S        S22140   7.170   1.944  13.434  0.2292  0.0712  0.2067
15337S        S22141  10.182   9.591  13.785 -0.0236 -0.3405 -0.2852
15338S        S22142   3.995   4.352  21.429 -0.1466  0.5141 -0.0310
15339S        S22143   9.635   1.799  32.151  0.5133  0.1810 -0.0456
15340S        S22144   9.069   1.929  23.654 -0.4367 -0.3928  0.3679
15341S        S22145  11.579   9.847  18.638  0.0368  0.0456  0.1276
15342S        S22146   8.025   1.733  15.346 -0.2914 -0.0387 -0.0802
15343S        S22147   2.353   4.872  16.125 -0.3052  0.0041 -0.2950
15344S        S22148   2.288   5.619  15.579  0.1665  0.0109  0.3854
15345S        S22149   8.125   4.508  11.665  0.2466 -0.1446 -0.1310
15346S        S22150   2.623   7.345  22.690  0.4269  0.9357  0.9760
15347S        S22151   7.001   6.488  22.661 -0.5560 -0.1058 -0.6967
15348S        S22152  10.098   7.645  22.414 -0.1847 -0.3370  0.1692
15349S        S22153   3.911  10.797  23.862 -0.0864  0.1885  0.5415
15350S        S22154  11.977   0.722  17.150 -0.1995 -0.1589 -0.0206
15351S        S22155   0.817  10.218  24.828 -0.3166  0.0070  0.2688
15352S        S22156   8.479   0.357  13.294  0.3941 -0.2034  0.2224
15353S        S22157   0.663   5.277  22.322 -0.1480 -0.1076  0.1377
15354S        S22158   1.346   8.617  11.101  0.1252  0.2969  0.3540
15355S        S22159   7.886   1.187  33.571 -0.2341  0.1775 -0.3502
15356S        S22160   9.800   9.137  20.167  0.2256 -0.1696 -0.2214
15357S        S22161   9.866   5.113  31.439  0.6211 -0.2687  0.1321
15358S        S22162   3.346   3.288  19.421  0.1986  0.2739 -0.1167
15359S        S22163   4.201   5.167  21.062 -0.3681 -0.1136  0.0785
15360S        S22164   5.949   8.604  14.594 -0.4808  0.1119  0.0032
15361S        S22165  10.781  11.407  23.318 -0.2103 -0.2095 -0.0830
15362S        S22166   0.721  11.923  20.938 -0.1280 -0.0384  0.0643
15363S        S22167   6.788   3.820  11.277  0.1089  0.1670 -0.3272
15364S        S22168  11.872   1.944  18.445  0.0550 -0.0355 -0.2115
15365S        S22169  12.348   1.935  11.858  0.1353  0.2523 -0.6035
15366S        S22170   1.453   6.154  26.284  0.3334  0.1171  0.2053
15367S        S22171   7.855   2.275  26.648 -0.4460  0.1702 -0.1856
15368S        S22172   9.635   7.606  31.486  0.9178 -1.1646  0.5134
15369S        S22173  10.979   5.048  23.246  0.1891 -0.3350  0.4888
15370S        S22174   4.838   4.094  26.162 -0.1913  0.5713 -0.8531
15371S        S22175   0.822   0.471  27.581  0.0050 -0.4629  0.2278
15372S        S22176   0.901  11.095  16.724  0.2219  0.7518 -0.1375
15373S        S22177   1.661  11.712  27.666 -0.0245  0.1218  0.1213
15374S        S22178   3.735   1.017  21.303  0.2382  0.1735  0.4720
15375S        S22179   1.743   1.541   0.063  0.1401  0.2083  0.5384
15376S        S22180   9.400   7.993  17.522 -0.5446 -0.3785  0.2322
15377S        S22181   4.531   5.705  28.770  0.6044  1.0031  0.3054
15378S        S22182  10.271   1.730  22.554 -0.2311  0.3049 -0.6542
15379S        S22183  12.199   9.359  25.406  0.0624 -0.1948  0.4494
15380S        S22184   7.234   5.723  17.733 -0.1493  0.2122 -0.4120
15381S        S22185   4.715   7.230  29.687 -0.0263  0.0850 -0.3621
15382S        S22186   4.750  10.204  16.250 -0.0357 -0.1461  0.3657
15383S        S22187   4.993   0.192  13.624  0.3142  0.4396 -0.2607
15384S        S22188   7.634  11.007  13.229  0.2468 -0.0426  0.0608
15385S        S22189   5.923   9.712   9.353  0.0230 -0.3024  0.4610
15386S        S22190   8.612   6.543  31.477 -0.8881 -0.1889 -0.2578
15387S        S22191   3.843   3.169  19.757  0.2974 -0.0859 -0.5244
15388S        S22192   9.611   7.317  11.298 -0.1075 -0.4141  0.1896
15389S        S22193  11.452   3.815  30.597 -0.1445 -0.0773  0.0539
15390S        S22194   6.212   2.230  16.366  1.0144 -0.2857 -0.1687
15391S        S22195  11.996   9.573  31.860 -0.6822  0.0200 -0.5585
15392S        S22196   8.130   1.772  22.493  0.1260  0.4841 -0.0477
15393S        S22197   5.256  10.274  16.068  0.1312  0.2083  0.3013
15394S        S22198   7.224   9.910  20.269  0.7663  0.4198 -0.0309
15395S        S22199   3.675  10.220  26.497 -0.6483  0.4740  0.5800
15396S        S22200   5.931  11.991  17.880 -0.0499 -0.3165 -0.0849
15397S        S22201  11.356   7.488  17.953  0.1474  0.0059  0.0039
15398S        S22202  12.239   0.949  28.136 -0.0620  0.4355 -0.7938
15399S        S22203   0.581   8.952  17.826  0.3679  0.3021 -0.0750
15400S        S22204  10.801   0.155  15.034 -0.1991  0.1351  0.1689
15401S        S22205  12.038   6.159  13.110 -0.3595 -0.0301 -0.4052
15402S        S22206   2.848   1.990  24.373 -0.2353 -0.0660 -0.0533
15403S        S22207  10.307   4.981  16.206  0.0840 -0.4917 -0.4221
15404S        S22208   7.148   8.202  17.780 -0.2722  0.0676 -0.0564
15405S        S22209  10.572   6.702  20.696 -0.2208  0.0027  0.1268
15406S        S22210   9.161   7.436  19.180  0.1751 -0.0743 -0.1584
15407S        S22211  10.365   6.481  27.163  0.0236  0.1443 -0.6386
15408S        S22212  10.127  11.129  12.595  0.4384 -0.0258  0.0666
15409S        S22213   9.948   4.019  23.710 -0.0142  0.1051  0.2643
15410S        S22214   5.407   8.309  25.646 -0.5174  0.2148  0.2617
15411S        S22215  12.244  11.995  22.831  0.6896 -0.1396  0.1649
15412S        S22216   4.352   2.591  21.856 -0.2559  0.2610  0.1431
15413S        S22217   4.083   8.547  18.474  0.3323  0.3153  0.1478
15414S        S22218   7.192  12.152  21.785  0.0833  0.2097 -0.4160
15415S        S22219   1.832  10.120  18.071 -0.3063 -0.1628  0.0018
15416S        S22220   7.641   5.730  18.238  0.1203 -0.7710 -0.0245
15417S        S22221   4.179   6.943  24.501  0.0432  0.0165 -0.2761
15418S        S22222   6.110  10.863  26.385  0.2800  0.2601 -0.0967
15419S        S22223  10.188   9.297  18.959 -0.1561  0.3603 -0.1410
15420S        S22224  11.410   2.594  16.939 -0.5895  0.3189 -0.9171
15421S        S22225   9.609  11.266  41.590  0.3641  0.1713  0.1600
15422S        S22226   3.542   2.013  20.121 -0.1644  0.1718 -0.2676
15423S        S22227   3.401   6.121  27.160 -0.1170  0.2825  0.7114
15424S        S22228   7.574   7.078  18.724  0.1160  0.2015  0.0160
15425S        S22229  12.233   6.602  13.026 -0.5136  0.0891  0.0597
15426S        S22230   9.042   5.733  19.405  0.2619 -0.3644  0.0058
15427S        S22231   8.140   1.850  28.026  0.0724 -0.3493  0.1717
15428S        S22232  10.298   9.862  28.902  0.2766  0.5080 -1.1768
15429S        S22233   7.314   9.778  11.788  0.6930 -0.1009 -0.5357
15430S        S22234   5.819   8.500  27.179  0.1747  0.0986 -0.0693
15431S        S22235   6.849  11.500  20.513  0.2782  0.1136  0.5903
15432S        S22236   6.891   9.634  15.283 -0.2796 -0.0379 -0.2677
15433S        S22237   8.367   3.944  27.351 -0.6551 -0.0113  0.1687
15434S        S22238   2.479   3.497  28.645  0.0899  0.1238 -0.7673
15435S        S22239   9.283   2.643   4.282 -0.3255  0.1570 -0.5235
15436S        S22240  12.352   3.179  15.497 -0.4159  0.0426  0.1375
15437S        S22241  10.655   0.601  26.708  0.3736 -0.3641 -0.0867
15438S        S22242   7.734   9.527  13.170 -0.2660 -0.1593 -0.2596
15439S        S22243   8.202   6.961  23.101 -0.1706  0.4187 -0.3466
15440S        S22244   1.737  11.844  21.376  0.5256 -0.0580  0.2510
15441S        S22245   2.528  12.137  31.092 -0.8566  0.1059 -0.4116
15442S        S22246   5.083   0.852  23.941 -0.4346 -0.0157 -0.1904
15443S        S22247   6.778  10.448  13.662  0.0398  0.5905  0.0539
15444S        S22248  11.686   6.424  24.615  0.3787  0.2759  0.6407
15445S        S22249   1.785   7.483  14.989 -0.0788 -0.6672  0.2272
15446S        S22250   9.217   6.522  13.130 -0.3576 -0.4108  0.1350
15447S        S22251   7.799   7.170  13.916 -0.0156 -0.5103 -0.0394
15448S        S22252   1.760   7.842  19.581 -0.0405 -0.5432  0.0561
15449S        S22253   5.871   0.685  13.925 -0.2043 -0.4069  0.1840
15450S        S22254   2.315   1.759  23.992  0.3852 -1.0298 -0.6114
15451S        S22255   8.877  10.672  16.033 -0.2956  0.1982 -0.2904
15452S        S22256   6.847   6.252  23.930 -0.4266 -0.0811 -0.4292
15453S        S22257   9.746   8.826  15.920  0.1783  0.1243 -0.3795
15454S        S22258  12.085   1.008  28.602 -0.7531 -0.1688  0.2049
15455S        S22259   8.326   9.142  16.030 -0.0478  0.4156 -0.0509
15456S        S22260  11.040   5.134  26.437  0.5298  0.0980 -0.1823
15457S        S22261  11.963  11.625  14.249  0.1046 -0.5204  0.4683
15458S        S22262  11.184  10.310  14.159  0.1957 -0.0793  0.1249
15459S        S22263   7.719  10.490  24.744 -0.1980 -0.2121 -0.1211
15460S        S22264   2.731   6.609  27.789 -0.4321 -0.0683 -0.3033
15461S        S22265   6.153   1.486  32.516 -0.2611 -0.3916  0.2676
15462S        S22266  11.025   6.711  21.069 -0.0393  0.0743  0.2606
15463S        S22267   9.317   3.862  24.947 -0.1245 -0.6612 -0.3370
15464S        S22268   4.040   0.315  17.245  0.4951 -0.7043 -0.5806
15465S        S22269   3.297   8.419  20.023  0.1299 -0.0520  0.0593
15466S        S22270   9.815   8.894  16.696  0.3340  0.0930 -0.2609
15467S        S22271   0.572  11.125  19.706  0.0824  0.1858 -0.0610
15468S        S22272   7.654   2.627  26.978  0.2913  0.0772  0.6433
15469S        S22273   4.907   5.226  14.308 -0.3090  0.1896 -0.2031
15470S        S22274   8.589   7.863  11.962  0.2943 -0.1862  0.1901
15471S        S22275   9.663   2.860   4.579  0.0281 -0.2802 -0.1911
15472S        S22276   1.326  12.214  24.208 -0.4041 -0.0182 -0.2681
15473S        S22277   5.559   5.323  22.160 -0.0369  0.2308  0.1523
15474S        S22278  10.462   9.097  17.983  0.1211 -0.3168  0.1312
15475S        S22279   4.235   2.868  17.111 -0.0193 -0.1049  0.1928
15476S        S22280   2.558   0.552  25.055  0.5721  0.0114 -0.2502
15477S        S22281  11.360  11.713  31.245 -0.1134  0.1441  0.0127
15478S        S22282   5.668   8.674  22.296  0.4907  0.0293  0.1049
15479S        S22283   0.099   0.568  12.663 -0.3537 -0.1318 -0.9059
15480S        S22284   7.884  11.701  31.194 -0.0518  0.1357  0.3460
15481S        S22285   8.084   1.820  19.735 -0.1364 -0.1855  0.2532
15482S        S22286   2.011   1.536  12.032  0.1745 -0.0358  0.2504
15483S        S22287   1.192   2.155  19.836  0.3247 -0.2579 -0.2913
15484S        S22288   9.522   1.646  25.463 -0.3669  0.1538  0.0681
15485S        S22289   8.280   6.673  20.731  0.0498 -0.5693 -0.3159
15486S        S22290   6.230   6.730  14.603 -0.2446 -0.0017 -0.3311
15487S        S22291   5.870   6.679  13.557  0.2333 -0.2266 -0.2332
15488S        S22292   2.715   8.979  20.083  0.3074  0.1024 -0.0051
15489S        S22293   2.294   5.560  13.855  0.1081 -0.2053  0.6211
15490S        S22294  11.146   1.267  15.206 -0.2370 -0.3596  0.0413
15491S        S22295   8.272   7.426  13.789 -0.0131 -0.2610 -0.3941
15492S        S22296   7.994  10.982  22.303 -0.2099 -0.3481 -0.2528
15493S        S22297   7.757   7.833  20.421 -0.0499  0.0197  0.2944
15494S        S22298   9.426   8.384  18.462 -0.2039  0.1570 -0.3441
15495S        S22299   5.193   1.099  25.108  0.2916 -0.1222  0.4585
15496S        S22300  11.349   5.331  22.940  0.1733  0.3424  0.0632
15497S        S22301   3.091   8.382  31.536 -0.0419 -0.1427  0.0846
15498S        S22302  10.163   6.673  13.083  0.1610  0.1762  0.0629
15499S        S22303   3.020  10.585  26.470 -0.3207 -0.1143 -0.2512
15500S        S22304  11.908   4.331  20.247 -0.2511 -0.1426 -0.2639
15501S        S22305   5.633   0.862  11.208  0.2598 -0.0816  0.2038
15502S        S22306   9.212   2.104  26.526  0.3309  0.8072 -0.4690
15503S        S22307   4.465   6.414  16.426 -0.1110  0.4491  0.0532
15504S        S22308   1.545   9.938  29.083 -1.0498  0.1443  0.4841
15505S        S22309   0.504   6.435  11.220  0.0412 -0.0617  0.1232
15506S        S22310   3.796   2.747  15.449  0.2389  0.3948 -0.3806
15507S        S22311   6.645  12.231  33.019 -0.4312 -0.2399 -0.2046
15508S        S22312   9.997   2.727  23.117  0.2038  0.2431  0.3015
15509S        S22313   8.677  11.430  15.315 -0.0358  0.0205  0.2187
15510S        S22314   8.273   1.507  27.534 -0.2844  0.1416  0.0389
15511S        S22315   7.686  11.239  21.181 -0.0958  0.1201  0.0331
15512S        S22316   8.221   7.488  23.381  0.0959  0.3862  0.2004
15513S        S22317  10.793   8.391  15.259 -0.1478 -0.4540 -0.4916
15514S        S22318   7.007   3.195  22.156  0.1465  0.2969  0.0948
15515S        S22319   3.373   4.012  15.386 -0.0653  0.1620  0.5821
15516S        S22320  10.553   7.061  22.207 -0.0051  0.1280 -0.0499
15517S        S22321   4.943  10.513  20.109 -0.0924  0.2729  0.4089
15518S        S22322  11.738   5.032  23.682 -0.2403  0.4993  0.1794
15519S        S22323   9.154   0.677  21.425  0.3860  0.3258 -0.3852
15520S        S22324  11.198   2.528  19.743  0.2106  0.1232 -0.4557
15521S        S22325  10.028   3.592  18.784  0.4472  0.4057 -0.2395
15522S        S22326   9.817   7.447  20.351  0.0677 -0.1856  0.4115
15523S        S22327  11.059   0.622  31.430  0.5134 -0.1072  0.1703
15524S        S22328   9.818   0.694  16.760  0.0625 -0.2022 -0.1445
15525S        S22329   9.667   2.602  25.572  0.7806 -0.3179  0.1657
15526S        S22330  12.087   2.015  28.307  0.4329  0.3218  0.0534
15527S        S22331   3.886   1.204  13.107  0.5694 -0.3668  0.4104
15528S        S22332   7.402   8.185   3.787  0.0518 -0.0535  0.0377
15529S        S22333   5.307  11.036  26.193 -0.3163  0.2842 -0.0755
15530S        S22334  10.536   1.732  14.230 -0.1698 -0.0213 -0.0913
15531S        S22335  10.116   0.648  21.565 -0.2896 -0.5126  0.2557
15532S        S22336   8.827   9.489  14.238  0.2007 -0.3279 -0.1076
15533S        S22337   5.418   0.642  12.706  0.2730  0.1489  0.2075
15534S        S22338   5.300   1.854  24.004 -0.3878 -0.7176 -0.3962
15535S        S22339   2.479   3.740  20.285  0.0878 -0.4203 -0.0111
15536S        S22340   1.337   4.697  14.663 -0.3167 -0.1890  0.1011
15537S        S22341   4.735  10.713  26.064  0.1307 -0.2159 -0.1751
15538S        S22342   3.376   5.543  18.298 -1.1664 -0.3704 -0.1092
15539S        S22343   5.546  11.338  15.260 -0.3878 -0.0425  0.1908
15540S        S22344   9.949   7.814  16.792  0.1274  0.6853 -0.2574
15541S        S22345  10.163   2.923  16.728 -0.3501 -0.1935 -0.2068
15542S        S22346   2.357  10.815  18.646 -0.0664 -0.4933 -0.0807
15543S        S22347   4.186  10.147  26.540  0.4441 -0.3088 -0.3136
15544S        S22348  11.998   3.051  15.165  0.0469 -0.1043  0.3588
15545S        S22349   9.922  11.476  12.280  0.0225  0.0148  0.1434
15546S        S22350   3.450   9.904  29.699  0.0412  0.4816  0.2059
15547S        S22351  12.171   6.617  15.967 -0.1272 -0.0860 -0.0522
15548S        S22352  12.260  11.093  11.449 -0.6108  0.0523  0.4250
15549S        S22353   4.940   0.566  26.250 -0.1342 -0.5824  0.4520
15550S        S22354   6.160   7.724  31.466  0.0626  0.3024  0.6229
15551S        S22355   0.046   5.197  11.192 -0.0071 -0.1970  0.0559
15552S        S22356   2.660   8.453  25.759 -0.7417 -0.7578  0.5690
15553S        S22357   3.359   8.384  19.511  0.4540  0.1665 -0.1938
15554S        S22358  10.227   9.650  25.102  0.3096  0.1037  0.2458
15555S        S22359   3.102   8.741  31.144  0.1342 -0.5540  0.0617
15556S        S22360  12.106   6.882  19.213 -0.2453  0.0934  0.2219
15557S        S22361   9.815   7.281  22.853 -0.1723  0.3295  0.5490
15558S        S22362   0.770   0.420  29.776  0.5004 -0.0935  0.4358
15559S        S22363   4.564   7.252  32.181 -0.0510 -0.5921  0.0935
15560S        S22364  12.152   9.291  27.029  0.1473  0.2856  0.1277
15561S        S22365   3.674   1.572  22.389  0.1571  0.1171 -0.3334
15562S        S22366   7.626   4.488  16.459  0.1933  0.0989  0.1747
15563S        S22367   5.811   7.996  19.389 -0.0777  0.5653 -0.5393
15564S        S22368   0.037   3.023  30.617  0.3364  0.2262 -0.0255
15565S        S22369   4.536   6.766  16.802  0.0407  0.3089 -0.0279
15566S        S22370  10.154  10.360  33.310 -0.1985 -0.1986  0.2251
15567S        S22371   0.276   6.738   9.264  0.0134  0.2583  0.1843
15568S        S22372   7.930   7.890  25.241  0.3012 -0.2349 -0.0061
15569S        S22373   9.283  11.523  16.520  0.4749 -0.1705  0.0022
15570S        S22374   1.354   1.591  30.986 -0.2446  0.5969  0.3429
15571S        S22375   1.661   2.972  29.642  0.0847 -0.4990  0.7270
15572S        S22376  11.056   3.982  19.941  0.5619 -0.5161  0.3067
15573S        S22377   0.153  11.137  30.278 -0.5317  0.4528 -0.2855
15574S        S22378   8.788   6.494  16.420  0.2446 -0.0317  0.2162
15575S        S22379  11.121   7.680  12.837 -0.3178  0.5005 -0.1376
15576S        S22380   9.543   6.971  24.489 -0.6244  0.5082 -0.0847
15577S        S22381   4.986   9.094  13.446 -0.2259 -0.1307  0.2832
15578S        S22382  12.277  11.157  16.705 -0.2845 -0.1308  0.0723
15579S        S22383   8.153  10.366  28.806  0.2210  0.6805 -0.2031
15580S        S22384   4.496   2.682  18.963 -0.0358 -0.3302  0.0944
15581S        S22385   7.687   4.995  27.598 -0.8267  0.2402 -0.0864
15582S        S22386   4.687   2.478  16.962 -0.3665  0.2778 -0.0048
15583S        S22387   5.213   9.527  16.791  0.5166  0.0197 -0.1538
15584S        S22388   5.257   5.764  25.692  0.2509  0.5547 -0.2800
15585S        S22389   6.664  11.283  38.749  0.0644  0.3010 -0.0350
15586S        S22390  11.444   4.186  15.544  0.2599 -0.5336  0.2089
15587S        S22391   9.853  10.357  19.344 -0.3677  0.0919 -0.4207
15588S        S22392  12.202  10.711  31.887  0.0458  0.7933 -0.4130
15589S        S22393   3.032   7.186  28.318  0.6308  0.1591 -0.0177
15590S        S22394  11.885   5.095  13.856 -0.1400  0.3572 -0.7994
15591S        S22395   8.313   7.069  25.727  0.3764  0.6231  0.6174
15592S        S22396   7.003   9.306  18.457 -0.1304 -0.2619 -0.2046
15593S        S22397   2.173   8.857  29.391  0.5134 -0.0203  0.0409
15594S        S22398   1.186   4.209  12.526  0.1517  0.3845 -0.0870
15595S        S22399   4.761   8.376  12.250 -0.1637  0.2968  0.1574
15596S        S22400   4.310  10.991  18.420  0.0635 -0.3987 -0.2540
15597S        S22401   2.933   9.340  15.283 -0.4756  0.6139  0.2667
15598S        S22402   1.475   8.188  26.539 -0.0736 -0.0281  0.3356
15599S        S22403   4.828   7.909  27.910 -0.1059 -0.0928  0.0775
15600S        S22404   7.270   6.243  12.522 -0.0210 -0.0130 -0.2167
15601S        S22405  12.093   3.915  19.975  0.1302 -0.3916  0.1367
15602S        S22406   7.155   3.776  18.672 -0.3606  0.1546 -0.3195
15603S        S22407   4.680   8.897  12.306 -0.6437  0.2358  0.3818
15604S        S22408   1.380   0.751  24.279  0.3070 -0.4512 -0.2228
15605S        S22409  10.133   8.815  15.539  0.3001 -0.4250 -0.0103
15606S        S22410   9.038   3.938  18.675 -0.3810  0.0149  0.0545
15607S        S22411   4.428   5.980  29.234  0.1084  0.0985  0.2434
15608S        S22412   8.028   9.876  15.775  0.6024  0.3049 -0.3441
15609S        S22413   6.420  10.894  24.425 -0.1620  0.1937  0.4406
15610S        S22414  12.272   6.148  15.938 -0.1909  0.0934 -0.3497
15611S        S22415  10.156   2.891  20.712  0.1538 -0.2306 -0.0036
15612S        S22416  11.626   0.302  18.905 -0.3595  0.1588  0.1318
15613S        S22417   1.957   1.696  32.300  0.3790  1.3866  0.2739
15614S        S22418   6.306   2.122  31.452  0.1144 -0.4789 -0.2484
15615S        S22419  11.436   4.018  28.687  0.2232  0.3494 -0.7693
15616S        S22420   0.653   7.039  18.872  0.3730  0.9742  0.4070
15617S        S22421   5.454   6.737  16.739  0.1590  0.0232  0.0211
15618S        S22422  11.085   3.374  19.762  0.2566 -0.4196  0.3153
15619S        S22423   2.367  11.618  28.328  0.0306 -0.0635  0.2103
15620S        S22424   5.546   9.727  17.644 -0.3023 -0.0037  0.0426
15621S        S22425   8.581   6.196  19.401  0.2735  0.1422  0.4997
15622S        S22426   5.028   3.507  21.223 -0.1732 -0.4501 -0.0495
15623S        S22427  11.141  10.551  26.613  0.0874  0.1905 -0.2209
15624S        S22428   8.519   3.374  14.153  0.1744  0.0362  0.1424
15625S        S22429   5.570   8.700  28.699  0.2588 -0.6314  0.1477
15626S        S22430   9.384   3.962  13.292  0.2126 -0.2323 -0.3246
15627S        S22431   9.939   8.536  19.376  0.3632  0.3385  0.0270
15628S        S22432   5.759   1.257  13.743  0.2214 -0.5439 -0.1341
15629S        S22433  11.080   7.675  23.793  0.4623  0.3118  0.1420
15630S        S22434   7.204   9.404  19.965 -0.0325  0.2433  0.1831
15631S        S22435   5.508   2.426  13.785 -0.1365  0.1307 -0.0813
15632S        S22436   9.239   4.660  29.819 -0.1816  0.5359 -0.4436
15633S        S22437   6.548  11.633  28.675  0.3766  0.1212 -0.1601
15634S        S22438  10.485   6.962  23.469 -0.1588 -0.7677 -0.2141
15635S        S22439   0.997   8.150  21.270 -0.3018 -0.0985  0.1511
15636S        S22440   2.369  10.964  24.091 -0.1606 -0.4815  0.2618
15637S        S22441   6.387   9.240  23.084 -0.0441  0.4002  0.0645
15638S        S22442   3.253   8.898  14.302  0.0778 -0.0693 -0.0405
15639S        S22443   1.164   0.342  23.312 -0.0739 -0.4692 -0.3818
15640S        S22444   0.707   5.749  12.939 -0.4234  0.0622  0.2457
15641S        S22445   3.437   7.939  22.042  0.0743 -0.2925 -0.2778
15642S        S22446   8.440   8.296  15.973 -0.1944  0.2528 -0.6002
15643S        S22447  11.128   1.079  18.372 -0.0272  0.1629 -0.2651
15644S        S22448   3.705   1.557  20.287 -0.3121  0.1657 -0.3198
15645S        S22449   5.382   1.261  16.294 -0.3039 -0.0046 -0.2909
15646S        S22450   6.779   2.982  31.247 -0.1569  0.5173 -0.3602
15647S        S22451   6.781   2.819  14.778  0.3028  0.1238 -0.1359
15648S        S22452   1.664   8.238  20.970  0.3501  0.2000  0.7286
15649S        S22453   6.518   1.830  42.231 -0.5889 -0.2310  0.0059
15650S        S22454   7.208   5.719  20.606 -0.7050  0.0038  0.3557
15651S        S22455  11.458   2.211  27.389 -0.1483 -0.1549 -0.1612
15652S        S22456   9.084   3.589  17.467  0.2701 -0.1176  0.4487
15653S        S22457   7.120   7.302  24.158 -0.0277 -0.1701  0.3896
15654S        S22458   8.677   8.578  28.393  0.3714 -0.5485 -0.4397
15655S        S22459   7.333  11.332  28.996 -0.3314 -0.0624  0.6714
15656S        S22460  11.531  10.009  29.083 -0.1004  0.0527  0.2145
15657S        S22461   4.468   6.905   6.180  0.5798  0.2736 -0.0042
15658S        S22462   2.457  10.927  22.526  0.1832 -0.2526 -0.3635
15659S        S22463   0.954   9.081  23.437 -0.3881  0.6763 -0.2539
15660S        S22464  10.855   2.068  12.324 -0.3477 -0.1301  0.1694
15661S        S22465  10.196  11.319  14.604  0.0810  0.2147  0.0677
15662S        S22466   2.549   6.627  28.334 -0.1877 -0.3519  0.2719
15663S        S22467   2.588   8.595  24.771  0.4354  0.3049  0.0422
15664S        S22468   8.789   9.784  42.513 -0.3520  0.0423  0.9404
15665S        S22469   2.432   5.919  11.662 -0.4543 -0.2745  0.0202
15666S        S22470   2.944   9.324  32.010 -0.3162 -0.4225 -0.2365
15667S        S22471   9.297   1.791  14.373 -0.0688  0.0765 -0.0623
15668S        S22472   5.365   7.812  21.706 -0.6771 -0.2301  0.0983
15669S        S22473  10.449   7.680  19.615  0.0930  0.3281 -0.0632
15670S        S22474   8.619   1.951  27.682  0.3919  0.2259 -0.6995
15671S        S22475   1.674   6.138  22.764  0.2379  0.0485 -0.2079
15672S        S22476   3.563   2.806  26.479 -0.1195 -0.2587 -0.3743
15673S        S22477   5.344   7.609  15.234  0.0046 -0.3281 -0.1502
15674S        S22478   8.170   1.116  12.245  0.3300 -0.2774 -0.2466
15675S        S22479   7.720  11.699  17.839 -0.3379  0.3467 -0.0282
15676S        S22480   5.028   1.745  19.384 -0.1260 -0.0555 -0.2547
15677S        S22481   2.722   9.654  23.293 -0.1161  0.5136  0.1275
15678S        S22482   1.099   5.806  20.599  0.2330  0.0135  0.3080
15679S        S22483  11.004   4.990  26.985  0.0917  0.3440 -0.0356
15680S        S22484   6.816   5.423  26.425 -0.0284 -0.5560  0.1451
15681S        S22485   0.687   2.437  14.713  0.0174  0.1395 -0.2312
15682S        S22486   6.975  10.966  21.799  0.5828  0.0972  0.0543
15683S        S22487   6.517  11.044  31.373 -0.0947 -0.0147 -0.3503
15684S        S22488   2.682   5.348  22.886  0.6122 -0.3016  0.0409
15685S        S22489   7.148   8.605  40.322 -0.1798 -0.1888  0.2197
15686S        S22490   2.762   2.092  25.566 -0.3016  0.6712  0.5468
15687S        S22491   4.741  11.736  14.762  0.1186  0.0073 -0.4702
15688S        S22492   7.287   4.827  30.123 -0.3865  0.2157 -0.7702
15689S        S22493   5.950   0.114  29.051 -0.3038  0.3928 -0.2982
15690S        S22494   3.533  10.641  45.868  0.0657 -0.0908 -0.0541
15691S        S22495  10.571   1.122  19.306 -0.0823 -0.2841 -0.0116
15692S        S22496  10.313   9.989  15.672  0.5956  0.3333 -0.0382
15693S        S22497   2.366  11.360  22.317 -0.7034  0.5831  0.3804
15694S        S22498   2.931   3.233  23.120 -0.4533 -0.1635  0.2400
15695S        S22499   2.421   0.969  20.770 -0.5054 -0.4142  0.5417
15696S        S22500   0.388   6.414  14.217 -0.5049  0.6728  0.1235
15697S        S22501  11.670   0.343  26.623  0.2621 -0.4591 -0.3822
15698S        S22502  11.931   2.831  26.986 -0.3882 -0.4830  0.6863
15699S        S22503  11.518   2.730  13.812 -0.6522 -0.3132 -0.1699
15700S        S22504   9.470   4.165  12.781  0.0453 -0.2286  0.1833
15701S        S22505   4.392   4.316  27.111 -0.2449 -0.3353  0.2432
15702S        S22506   7.222   0.926  30.929  0.5982 -0.4742  0.3094
15703S        S22507   0.724   8.574  26.125 -0.0240  0.0586 -0.4286
15704S        S22508   0.195   9.404  13.344  0.5246 -0.1696 -0.0878
15705S        S22509   1.446   0.381  32.282  0.4118  0.1806  0.8443
15706S        S22510   8.767   5.979  19.824 -0.4377  0.0905 -0.2187
15707S        S22511  10.559   3.822  12.676  0.0246 -0.1083 -0.0666
15708S        S22512   3.152   8.288  21.637  0.1354  0.7074  0.3486
15709S        S22513   9.999   2.220  35.606  0.2826 -0.2876  0.2783
15710S        S22514   5.740  10.200  24.125  0.2850 -0.2136  0.0652
15711S        S22515  10.164  11.216  29.839  0.1697 -0.2100  0.0325
15712S        S22516   1.687   3.226  25.360  0.3114 -0.1939  0.2783
15713S        S22517   4.366   0.643  26.825 -0.2662 -0.0917  0.3398
15714S        S22518   3.084   9.511  23.657 -0.0378  0.1034 -0.1026
15715S        S22519   1.606   2.147  27.575  0.1650  0.0295 -0.3565
15716S        S22520   6.280   0.424  19.979 -0.5284 -0.4334  0.1353
15717S        S22521   8.438   3.243  25.191 -0.3585 -0.4232  0.1001
15718S        S22522   4.049   6.784  28.057  0.2999  0.1348 -0.2930
15719S        S22523   3.145   8.297  29.057  0.1539  0.0576 -0.0112
15720S        S22524   4.749   4.462  15.522  0.3124  0.2407  0.2258
15721S        S22525   9.569   9.931  16.751 -0.6177  0.5913 -0.4238
15722S        S22526  11.204   2.293   7.001  0.5228 -0.3179  0.5905
15723S        S22527  10.552   4.155  20.854 -0.0760 -0.4362 -0.4206
15724S        S22528   5.761   3.327  12.017  0.1577  0.0323  0.5322
15725S        S22529   0.040  11.796  24.289 -0.3013 -0.6951 -0.6620
15726S        S22530   5.075   3.372  14.873 -0.2445  0.3433  0.1210
15727S        S22531  11.621   9.440  32.525 -0.2347  0.2497  0.0143
15728S        S22532   3.831   0.343  25.236 -0.2605  0.1192 -0.0173
15729S        S22533   0.207   9.368  16.481 -0.0204  0.0753  0.2430
15730S        S22534   1.774   3.587  23.616 -0.5132  0.0880  0.2224
15731S        S22535   7.985   4.942  14.449 -0.0135 -0.5297 -0.1925
15732S        S22536  10.346   0.862  12.970 -0.0743 -0.0012 -0.5229
15733S        S22537   7.343   0.819  23.834 -0.2846 -0.5341 -0.4688
15734S        S22538   7.162   3.604  12.720 -0.1031 -0.3189  0.2110
15735S        S22539   5.415   4.895  30.134 -0.8751 -0.3964  0.5996
15736S        S22540  11.812   4.101  15.086 -0.2544  0.0358  0.3361
15737S        S22541   3.330  11.532  31.107 -0.2092 -0.3801 -0.7808
15738S        S22542   4.078  10.491  10.867  0.2479 -0.0203 -0.1030
15739S        S22543   4.865  12.269  18.565 -0.0941 -0.2797 -0.1805
15740S        S22544   8.668   6.103  18.484 -0.5332 -0.3675  0.4736
15741S        S22545  11.885   7.333  28.347 -0.2886 -0.7406 -0.5981
15742S        S22546   7.718  11.149  17.118 -0.2830 -0.4092  0.0003
15743S        S22547  10.086   3.320  27.636 -0.3504 -0.7832 -0.0392
15744S        S22548   5.091   0.855  25.543  0.0387 -0.0439  0.1002
15745S        S22549   8.067   7.187  24.569  0.3695  0.2704  0.1196
15746S        S22550   4.837   2.339  26.583 -0.0368 -0.0858 -0.3364
15747S        S22551   0.955   0.416  18.550 -0.1882  0.0372 -0.4433
15748S        S22552  12.329   9.907  25.420  0.5652  0.0473 -0.2417
15749S        S22553  10.082   6.171  23.083  0.0769 -0.4934 -0.2052
15750S        S22554   4.649   1.940  15.371 -0.3820  0.1032 -0.0152
15751S        S22555   0.259   2.239  12.625 -0.1202 -0.4390 -0.0436
15752S        S22556   3.874   9.694  27.812 -0.1964  0.3245 -0.2004
15753S        S22557   6.632   4.485  22.180 -0.0090  0.1545  0.1798
15754S        S22558  11.937  12.093  21.593  0.3765  0.0470 -0.4105
15755S        S22559   5.798   1.555  20.929  0.2040 -0.0253 -0.0526
15756S        S22560  10.787  12.119  25.623  0.1761 -0.1009  0.1469
15757S        S22561   9.917   4.439  14.533  0.1017  0.3588  0.4660
15758S        S22562   3.560   7.155  19.196  0.4280 -0.3046  0.2794
15759S        S22563   4.229   1.265  17.580 -0.2048 -0.4121 -0.5219
15760S        S22564   2.526   3.319  25.450 -0.3488  0.0462  0.2161
15761S        S22565   0.798   0.937  21.397 -0.4500 -0.2882  0.3221
15762S        S22566   8.502   2.515  21.128  0.0844  0.2296  0.7763
15763S        S22567   0.354   7.823  17.453  0.3267 -0.4711 -0.0456
15764S        S22568   0.650  10.918  24.285 -0.0384 -0.2697 -0.3818
15765S        S22569   8.239   2.367  21.564 -0.6682  0.0216  0.0182
15766S        S22570   2.499   3.388  31.674  0.2076 -0.2076  0.0579
15767S        S22571   4.611   1.084  15.243 -0.2401 -0.0949  0.1185
15768S        S22572   6.355   4.287  21.824  0.1432  0.1925 -0.6077
15769S        S22573   1.712   1.963  30.850 -0.1082 -0.2487 -0.2561
15770S        S22574  10.211   6.436  12.524 -0.2208  0.1208  0.7568
15771S        S22575   2.017   3.675  24.119  0.0467 -0.2267  0.8481
15772S        S22576   8.579   5.461  24.076  0.8928 -0.1023  0.0114
15773S        S22577  10.310   3.242  33.115 -0.3394 -0.0529 -0.0787
15774S        S22578   9.961   1.557  13.280 -0.0014 -0.1802  0.3786
15775S        S22579   5.122   3.577  16.518  0.1702  0.1904 -0.4277
15776S        S22580   9.767   5.554  29.682  0.1764 -0.3280 -0.5595
15777S        S22581   5.178   3.577  18.445 -0.1064 -0.4110  0.1438
15778S        S22582   7.922   4.627  20.239  0.3143  0.2683  0.1406
15779S        S22583  10.787  10.061  15.506 -0.3051 -0.4707 -0.2630
15780S        S22584   0.814   4.749  21.107 -0.3708  0.2316 -0.0161
15781S        S22585   7.547  11.929  13.675 -0.3161  0.2457  0.0197
15782S        S22586   2.902   9.528  16.459 -0.2671  0.0448 -0.1198
15783S        S22587  12.008   5.653  13.902  0.2178  0.0428  0.0002
15784S        S22588   6.550  11.520  28.204  0.2651  0.5652 -0.2732
15785S        S22589   7.635  12.198  21.544 -0.5455  0.6114 -0.4663
15786S        S22590   2.946   3.661  17.069  0.4231  0.3068 -0.4116
15787S        S22591   2.791   5.664  12.561 -0.0758 -0.2341 -0.2521
15788S        S22592   7.386   7.563  16.730  0.2857  0.2355  0.5558
15789S        S22593   7.782   9.465  28.564 -0.2625 -0.1854  0.1828
15790S        S22594  10.111   5.253  13.738  0.2090  0.2485 -0.0206
15791S        S22595   2.357   6.013  14.111 -0.1913 -0.0015 -0.1065
15792S        S22596   3.952   5.295  24.051 -0.0865 -0.1863 -0.2633
15793S        S22597   7.859   4.711  29.301 -0.0632  0.4430 -0.0787
15794S        S22598  12.178   9.150  16.137 -0.2887 -0.1533  0.2466
15795S        S22599  10.621   3.814  15.553 -0.1910  0.3867 -0.0822
15796S        S22600   5.473   4.343  23.202 -0.6070 -0.4027  0.1312
15797S        S22601   9.262   7.100  17.765 -0.4447  0.1360 -0.0983
15798S        S22602  12.014   5.768  24.767  0.3878  0.2889 -0.6143
15799S        S22603  10.358   1.930  26.416  0.2650  0.5112 -0.3170
15800S        S22604   9.622   8.063  12.860  0.7097 -0.4273  0.2028
15801S        S22605   7.431  11.085  14.595 -0.1503 -0.3705  0.3453
15802S        S22606  10.852  11.267  11.370  0.0006  0.2616 -0.0367
15803S        S22607  11.602   4.779  26.261  0.2392 -0.2064 -0.4749
15804S        S22608   2.485   1.870  15.466 -0.0729  0.1385  0.2728
15805S        S22609   8.499   6.463  17.816  0.1608 -0.0189 -0.4454
15806S        S22610   5.680   4.930  16.373  0.1456  0.3261 -0.3580
15807S        S22611   6.294   6.944  13.668  0.2677 -0.1274 -1.1445
15808S        S22612   1.382   0.074  22.384  0.2686 -0.1587 -0.0586
15809S        S22613   5.478   6.939  47.669  0.2271 -0.2118 -0.1112
15810S        S22614   8.720   0.090  25.961 -0.4753 -0.5315  0.0049
15811S        S22615  12.020   9.888  20.897  0.4415  0.1398 -0.5540
15812S        S22616   5.721   8.618  16.683  0.4098  0.2807 -0.1523
15813S        S22617   8.129   2.953  24.778 -0.3781  0.4937  0.3127
15814S        S22618   6.002   6.662  32.672  0.6693  0.0114  0.1563
15815S        S22619  10.656   5.665  20.821  0.0159 -0.2420 -0.1088
15816S        S22620   7.528   5.389   0.020  0.0318 -0.3547  0.2500
15817S        S22621   4.149   8.525  24.243 -0.4588 -0.1752  0.0238
15818S        S22622   0.227  11.489  26.668 -0.1118 -0.3535 -0.2431
15819S        S22623   3.457   4.660  15.759  0.2483 -0.3492  0.1976
15820S        S22624   1.912   9.744  22.535  0.7210  0.2284 -0.2282
15821S        S22625   7.828   2.884  13.590 -0.2187  0.4012  0.0286
15822S        S22626   5.844   3.515  30.155  0.1312 -0.0590  0.3342
15823S        S22627  11.980   4.390  26.178  0.1856  0.4854 -0.1064
15824S        S22628   6.801  10.894  13.362 -0.1151 -0.3700  0.4974
15825S        S22629   5.143   2.431  14.773 -0.3743 -0.1722  0.2191
15826S        S22630  11.655   4.804  21.565  0.3061  0.2431 -0.3102
15827S        S22631   7.880  12.223  20.392 -0.3512  0.0001  0.1965
15828S        S22632   0.699   8.124  27.151 -0.6101 -0.3719 -0.6723
15829S        S22633   5.415   6.714  24.934 -0.5062  0.0141 -0.4663
15830S        S22634   3.025   4.471  29.853 -0.4480  0.1596  0.6572
15831S        S22635  10.135   0.127  12.417 -0.0782 -0.1492  0.2041
15832S        S22636   8.795   2.666  18.143 -0.7681 -0.1685  0.1841
15833S        S22637   7.396   1.273  12.021 -0.2027 -0.3984  0.0508
15834S        S22638   2.496  11.221  25.298 -0.0286  0.7077 -0.1542
15835S        S22639  10.821   8.415  11.694 -0.0169 -0.0518  0.5569
15836S        S22640   6.193   5.807  28.459 -0.2842  0.3959 -0.0898
15837S        S22641   7.759   5.680  29.247  0.0279 -0.7860  0.0231
15838S        S22642   5.023   9.972  19.047  0.2017 -0.1805 -0.0696
15839S        S22643   3.371   7.000  17.185 -0.1978 -0.0621  0.0985
15840S        S22644   1.652   5.066  30.491  0.1504 -0.0689  0.1129
15841S        S22645   8.993   7.856  21.134  0.1183  0.0218 -0.1102
15842S        S22646  12.269   7.893  10.969 -0.1009  0.4351 -0.1123
15843S        S22647   1.803   3.126  19.737 -0.0216 -0.6389 -0.2796
15844S        S22648  11.919   7.689  23.081  0.8365  0.2421 -0.7346
15845S        S22649   3.220   0.348  28.893 -0.4416 -0.0662 -0.3653
15846S        S22650  11.414  10.629  14.777  0.0768  0.1542 -0.1883
15847S        S22651  10.435   7.578  13.155 -0.0786 -0.2509  0.2511
15848S        S22652  11.356   6.333  22.590 -0.4063  0.3204  0.2312
15849S        S22653   0.573  12.097  21.614 -0.3928 -0.3656  0.2432
15850S        S22654   9.802   2.735  18.767 -0.0602  0.5409 -0.3586
15851S        S22655   0.214   8.865  16.254  0.3560 -0.2039 -0.1589
15852S        S22656   3.285   1.851  12.169 -0.1309  0.0366  0.1354
15853S        S22657   0.892   7.812  27.575  0.0318 -0.0667 -0.2473
15854S        S22658   6.778   3.403  17.098 -0.0071  0.9856 -0.0048
15855S        S22659  10.207   3.845  16.469  0.1472 -0.1961  0.1582
15856S        S22660   8.864   9.080  15.087 -0.3439  0.1025  0.2234
15857S        S22661   4.569   4.041  18.352 -0.1199  0.7252  0.3434
15858S        S22662   6.818   0.065  17.295  0.2257  0.0044  0.1845
15859S        S22663   7.945   9.917  18.637 -0.0338 -0.0584  0.1066
15860S        S22664   8.826   5.110  24.435 -0.0832  0.1790  0.3342
15861S        S22665   3.564   8.790  19.084 -0.0770  0.7893  0.2641
15862S        S22666  10.094   6.554  20.924  0.6111 -0.6991 -0.3318
15863S        S22667   7.121   7.020  20.005 -0.3962 -0.1288  0.1911
15864S        S22668   6.953   8.398  11.412 -0.3124 -0.4310  0.1221
15865S        S22669  11.315   5.659  17.981 -0.2090 -0.8359 -0.1809
15866S        S22670   3.282  11.492  25.277  0.7907  0.0321  0.1834
15867S        S22671   8.904   8.033  22.189 -0.5383  0.0963  0.2386
15868S        S22672   5.140   8.334   4.870 -0.3883 -0.8687  0.3287
15869S        S22673   4.982   6.434  24.286  0.3736  0.2618  0.4005
15870S        S22674  10.780   6.088  24.656 -0.4263 -0.2297 -0.0479
15871S        S22675   1.720   7.806  16.695  0.3421  0.3590  0.1250
15872S        S22676   4.916   9.633  19.445 -0.1637 -0.4554 -0.1583
15873S        S22677  11.778   3.300  28.218 -0.0104  0.0511 -0.9704
15874S        S22678   8.286   2.732  21.941  0.2546 -0.4591  0.4561
15875S        S22679   1.356  11.908  24.657  0.5330  0.0386  0.2750
15876S        S22680   0.051   2.345  29.926 -0.5658 -0.5452 -0.2157
15877S        S22681   0.729   9.736  11.297 -0.3952  0.2391  0.1074
15878S        S22682   8.175   3.517  12.553 -0.1360  0.1319 -0.1200
15879S        S22683   5.067   2.755  17.373  0.1459  0.0310  0.4637
15880S        S22684   2.400  11.185  19.947  0.4013  0.2708 -0.0729
15881S        S22685   3.556   6.117  12.963  0.0799  0.0953 -0.1111
15882S        S22686   1.789   8.508  11.344 -0.2083 -0.2508 -0.1491
15883S        S22687   9.881   6.216  28.877  0.2919 -0.3603 -0.5352
15884S        S22688   2.696   3.127  15.760  0.1446  0.1991 -0.0220
15885S        S22689  12.355   4.813  13.996  0.1553 -0.1381 -0.2449
15886S        S22690   4.618   5.849  31.534 -0.3107 -0.1509  0.3959
15887S        S22691   6.604   8.275  13.807 -0.1189  0.1452  0.1493
15888S        S22692   5.372   1.825  20.967 -0.2578 -0.2316  0.2392
15889S        S22693   5.059  10.719  30.322  0.4307  0.3171  0.0913
15890S        S22694   4.783   4.236  20.810  0.6376  0.6614  0.4441
15891S        S22695   0.076  12.251   4.708 -0.0890  0.2969  0.0976
15892S        S22696   8.013   2.368  12.153 -0.3194 -0.0912  0.4436
15893S        S22697  12.124   4.706  23.925  0.1688 -0.1933 -0.5339
15894S        S22698   4.617   4.882  25.345  0.5783  0.2502  0.2449
15895S        S22699   3.996   6.390  12.916  0.0700 -0.0427  0.2892
15896S        S22700   8.707   0.243  29.155  0.9505  0.5312  0.3501
15897S        S22701  12.294   3.344  14.931  0.1370  0.2499  0.0093
15898S        S22702   7.207  10.819  28.796 -0.1039  0.2964 -0.0066
15899S        S22703   1.178   0.622  48.608  0.1214  0.2713 -0.1824
15900S        S22704   7.242   9.551  12.307 -0.0735 -0.2573 -0.0092
15901S        S22705   9.083  10.763  28.101  0.4083  0.0120 -0.0951
15902S        S22706   7.303   8.701  11.687  0.3532 -0.4415  0.2290
15903S        S22707   1.408  10.850  24.585 -0.1891  0.2614  0.2655
15904S        S22708   2.867   5.589  27.746  0.2075 -0.3845 -0.3554
15905S        S22709   5.578   0.990  28.942  0.0444 -0.3509 -0.3107
15906S        S22710  11.625   7.878  22.576  0.2437 -0.0929  0.4928
15907S        S22711   3.041   7.444  12.751 -0.5501  0.0352  0.0495
15908S        S22712   5.061   3.281  18.859 -0.0877  0.4474  0.1132
15909S        S22713   8.030   4.468  29.984  0.1339  0.4029  0.1999
15910S        S22714   9.133   5.364  14.657 -0.2439 -0.0307  0.1501
15911S        S22715   1.746  10.396  28.246 -0.4145 -0.3605 -0.1258
15912S        S22716   5.341   6.692  16.087 -0.1774 -0.0281 -0.2529
15913S        S22717  11.259   3.826  22.163  0.2561 -0.3560 -0.2193
15914S        S22718   9.992   2.227  18.260  0.4970 -0.0089 -0.2934
15915S        S22719   7.544   9.550  23.499 -0.1367  0.0261  0.4095
15916S        S22720   3.748  10.860  14.374 -0.2543 -0.1415  0.1169
15917S        S22721   4.283  10.411  23.135 -0.2895 -0.5147  0.4132
15918S        S22722   4.650  10.839  12.012 -0.0153 -0.1823  0.0101
15919S        S22723   7.988   4.491  14.717 -0.1471  0.3676 -0.5202
15920S        S22724   0.437   0.950  31.732 -0.4658  0.6804 -0.0124
15921S        S22725   2.861   8.831  26.360 -0.2381  0.3366  0.2481
15922S        S22726   2.222  10.844  21.528  0.5022 -0.1093 -0.1725
15923S        S22727   4.431  12.345  19.534  0.2373  0.4564  0.0190
15924S        S22728   2.950  11.313  31.566 -0.1975  0.4735 -0.0307
15925S        S22729  10.984   4.309  23.384 -0.4881  0.2594 -0.4078
15926S        S22730   0.713   7.350  23.445 -0.5365  0.4785 -0.3746
15927S        S22731   9.830   9.822  12.409 -0.3664  0.2272 -0.0773
15928S        S22732   5.279  10.697  31.567 -0.2206 -0.1255  0.1079
15929S        S22733   4.196   2.954  12.142  0.0228  0.1617  0.3628
15930S        S22734   0.717   8.158  19.094 -0.0731  0.0220  0.2048
15931S        S22735   9.624   7.501  14.546  0.8038 -0.0173  0.4397
15932S        S22736   6.157   6.100  27.938 -0.2093 -0.1502 -0.9959
15933S        S22737   0.674   4.935  29.341  0.1973 -0.1074 -0.4265
15934S        S22738   5.639   1.902  36.508  0.1968 -0.2187  0.5881
15935S        S22739   6.093   6.185  14.106 -0.3967 -0.7535  0.2356
15936S        S22740   5.714   4.839  19.567  0.4336  0.2217 -0.0046
15937S        S22741   1.686   0.615  19.143  0.2530  0.3007 -0.4788
15938S        S22742  11.886   9.063  23.127 -0.0802 -0.2356 -0.2730
15939S        S22743   2.830   9.801  24.793 -0.6617  0.2190 -0.7157
15940S        S22744   0.919   9.924  18.870 -0.3771  0.0933 -0.2705
15941S        S22745   6.307   0.104  15.566  0.0927  0.6104  0.2559
15942S        S22746   6.851   6.648  12.282  0.0869 -0.1133 -0.4486
15943S        S22747   0.109  11.514  22.796  0.0788 -0.1509 -0.1840
15944S        S22748  10.986   7.438  23.002 -0.0500 -0.3107  0.1554
15945S        S22749   6.866   6.476  27.127  0.2810  0.3762  0.1861
15946S        S22750   0.374   8.414  12.125 -0.1024  0.2358  0.4311
15947S        S22751   0.764   9.476  14.715  0.2900  0.1386 -0.6383
15948S        S22752   2.116   1.700  29.573  0.5503  0.2088 -0.2234
15949S        S22753  11.017   4.291  28.462  0.8474  0.1847 -0.0223
15950S        S22754  11.376   3.529  23.693  0.4888  0.1999 -0.1809
15951S        S22755  11.612   8.714  24.584  0.1893 -0.0926  0.1130
15952S        S22756   4.751   1.771  32.458  0.3458 -0.0127  0.0829
15953S        S22757   2.823   4.125  17.635  0.0308  0.6905 -0.3116
15954S        S22758  10.910   1.358  21.168 -0.1475 -0.1158  0.3330
15955S        S22759   5.930   9.672  30.258  0.2217 -0.3138 -0.3734
15956S        S22760   8.778  10.829  14.158 -0.1258 -0.1005 -0.3963
15957S        S22761   6.119   3.979  16.861  0.1371  0.0588  0.0438
15958S        S22762  10.180   4.096  15.530 -0.1933 -0.4172 -0.1124
15959S        S22763   3.926   0.938  26.525 -0.0172  0.1434  0.0321
15960S        S22764   6.619   3.438  15.883  0.3943  0.3931  0.0086
15961S        S22765   4.740   3.566  16.932  0.0292  0.5806  0.1312
15962S        S22766   3.330  12.321  12.741 -0.8721  0.1290  0.3272
15963S        S22767   6.775   5.653  19.755  0.2081  0.4085 -0.1803
15964S        S22768  12.083   7.402  19.956 -0.2642 -0.5973 -0.2680
15965S        S22769   7.594  11.302  12.287 -0.1230  0.0265 -0.1589
15966S        S22770   0.946   4.381  26.653 -0.4052  0.1082  0.0139
15967S        S22771   8.639   2.434  23.273  0.1297 -0.0633 -0.3277
15968S        S22772   7.291   6.807  19.085 -0.3450  0.4380 -0.1460
15969S        S22773   0.553   9.708  16.778  0.0561 -0.5777 -0.1735
15970S        S22774   3.661   1.157  11.468 -0.1229  0.0237  0.4526
15971S        S22775   2.559   5.801  14.532  0.3249 -0.0036 -0.1987
15972S        S22776   5.289   4.726  16.758 -0.2470 -0.0826  0.4585
15973S        S22777   9.277   2.238  27.049  0.6468  0.3190 -0.7481
15974S        S22778  11.183   8.274  12.969 -0.1949  0.2599  0.0894
15975S        S22779   9.576  10.970  23.902 -0.2436  0.2815  0.3789
15976S        S22780   8.206   7.552  20.426 -0.0980  0.1660 -0.0588
15977S        S22781   5.703   5.532  21.257 -0.5261  0.6934  0.3881
15978S        S22782   7.530  10.505  32.420  0.0584 -0.1297  0.0044
15979S        S22783   4.901   9.123  11.469 -0.3110 -0.5973 -0.4601
15980S        S22784   5.561   2.976  17.372 -0.1244  0.0482 -0.4078
15981S        S22785   3.944   4.463  27.142 -0.0713  0.3878  0.0744
15982S        S22786   7.800   6.300  17.490  0.1527 -0.1748  0.1938
15983S        S22787   9.362   4.770  12.497  0.4108 -0.4045  0.0046
15984S        S22788  11.027  12.256  14.009  0.3701 -0.1124 -0.1107
15985S        S22789   3.578  10.369  17.946 -0.1645 -0.0342 -0.4277
15986S        S22790  10.285   7.777  28.442 -0.0229  0.3250 -0.1688
15987S        S22791   3.887   7.448  20.971 -0.2013  0.2030  0.2899
15988S        S22792   2.373   3.902  19.093 -0.4145 -0.1058 -0.2973
15989S        S22793   6.831   1.981  15.944  0.0502  0.6419  0.5213
15990S        S22794   1.416   1.830  29.260 -0.1179 -0.4202 -0.2178
15991S        S22795   4.803   2.534  23.274  0.4413 -0.2264 -0.2370
15992S        S22796   7.228   3.551  13.639 -0.2953  0.1407  0.3589
15993S        S22797   7.093   9.003  13.190 -0.4158 -0.4027 -0.1480
15994S        S22798  10.063   2.536  15.883  0.3476  0.6564  0.3482
15995S        S22799   5.984  10.220  14.460 -0.3244  0.0406 -0.5541
15996S        S22800  10.534   4.610  12.166 -0.0963 -0.4790 -0.1074
15997S        S22801   3.601   0.153  22.600  0.1709  0.0513 -0.0672
15998S        S22802   8.463  11.928  14.728  0.0293  0.0592 -0.4009
15999S        S22803   8.319  10.629  19.871 -0.3564 -0.1165 -0.1415
16000S        S22804   3.341   2.608  24.062 -0.1547 -0.0802 -0.5072
16001S        S22805  11.598   8.370  19.852  0.1605  0.4536  0.0865
16002S        S22806   6.849  11.611  24.631  0.2218 -0.4348 -0.2739
16003S        S22807   6.199   4.864  16.603  0.0466  0.3059 -0.0897
16004S        S22808   1.872   7.799  25.816  0.3393 -0.0108  0.1099
16005S        S22809   7.296   6.667  17.707 -0.0682 -0.1593  0.1538
16006S        S22810   3.961   1.130  26.038 -0.2348 -0.2181 -0.0803
16007S        S22811   5.103   3.484  27.317  0.6084  0.0282 -0.2504
16008S        S22812  11.887   8.568  27.159 -0.0279  0.2838  0.3624
16009S        S22813   2.942   1.385  13.104 -0.2416 -0.0031  0.0360
16010S        S22814   2.693   8.112  16.559  0.2809 -0.1654  0.0023
16011S        S22815   9.964   3.386  16.295  0.2570 -0.2170 -0.4374
16012S        S22816  10.304   2.609  19.737  0.3477  0.0822 -0.3202
16013S        S22817  11.073   3.586  30.775 -0.2222 -0.1516 -0.1968
16014S        S22818   9.500   1.484  28.182  0.0361  0.2986 -0.6584
16015S        S22819   5.323   1.409  29.034 -0.2356 -0.5018 -0.2242
16016S        S22820   9.339   0.515  13.335  0.4722  0.0800  0.3255
16017S        S22821   0.307   9.974  27.368 -0.0492 -0.4931  0.0485
16018S        S22822   1.043   2.394  22.243  0.5580 -0.3729  0.1939
16019S        S22823   3.774  10.896  16.750 -0.0798  0.0417 -0.0275
16020S        S22824  12.352  11.958  15.655  0.1909  0.0119 -0.0921
16021S        S22825  10.736   1.700   7.129  0.1631  0.0968  0.3865
16022S        S22826   7.858   5.773   0.301 -0.3049 -0.0161  0.2323
16023S        S22827   6.843   5.222  11.755  0.0545 -0.5155  0.3396
16024S        S22828   7.527   0.071  13.846  0.6930  0.0416  0.0691
16025S        S22829   9.152   2.333   4.652 -0.1901 -0.4278 -0.0690
16026S        S22830   2.536   4.549  25.926  0.1623 -0.2956 -0.4906
16027S        S22831   8.326   4.749  13.656 -0.1407  0.1834  0.0977
16028S        S22832   4.476   3.527  22.548 -0.0157 -0.0479  0.1134
16029S        S22833   0.663   5.980  28.446  0.3340 -0.5122 -0.1649
16030S        S22834  10.717   1.076  17.033 -0.4675  0.2082 -0.0720
16031S        S22835   9.800   5.453  22.016  0.3074  0.1767  0.2653
16032S        S22836   1.217   1.044  14.432 -0.0686 -0.0955  0.3472
16033S        S22837   8.701   1.983  28.201  0.2903 -0.7492  0.0166
16034S        S22838  11.550   6.059  13.347 -0.3335  0.4484  0.3680
16035S        S22839  12.341   7.125  12.947 -0.3203 -0.2098 -0.1336
16036S        S22840   2.543   0.975  30.006 -0.0019 -0.3483 -0.3176
16037S        S22841   9.923   5.427  14.405 -0.3633  0.0539 -0.5256
16038S        S22842   3.552   1.594  16.656 -0.0256 -0.1816 -0.0191
16039S        S22843  12.238   2.189  19.187 -0.0556 -0.3568  0.3595
16040S        S22844  11.751  11.965  15.586 -0.1661  0.1690  0.3970
16041S        S22845  10.097   2.008  22.015  0.3812 -0.3215 -0.5097
16042S        S22846  12.198   6.341  31.370  0.3967  0.5109 -0.6395
16043S        S22847   6.729   4.192  44.688 -0.0438  0.2032 -0.1615
16044S        S22848   2.935   0.052  19.576  0.5003  0.4318  0.5361
16045S        S22849   3.462   7.010  21.081  0.7439 -0.5985  0.3142
16046S        S22850   8.034   3.837  13.636  0.4110 -0.4567  0.2724
16047S        S22851  11.611   6.194  11.236  0.1897 -0.2749 -0.4474
16048S        S22852   0.139  10.974  19.432  0.5384 -0.3454  0.3186
16049S        S22853  10.403   3.016  16.141 -0.3981  0.0646 -0.0902
16050S        S22854   9.257   5.506  27.000 -0.1392 -0.1887 -0.5662
16051S        S22855   2.591  11.790  27.074  0.0067  0.0035  0.2000
16052S        S22856   3.789   3.584  24.705  0.6770 -0.0229 -0.0760
16053S        S22857   6.357   2.543  22.254 -0.0409  0.2523  0.1906
16054S        S22858   1.882   2.350  32.146 -0.0370 -0.1144 -0.3100
16055S        S22859   0.028   2.802  28.816 -0.2770 -0.0680 -0.0147
16056S        S22860   7.100   4.788  29.634 -0.0709 -0.3017  0.2357
16057S        S22861   5.566   3.560  26.870 -0.0215  0.0277  0.0028
16058S        S22862   5.400   3.018  15.483  0.3305  0.1942  0.2507
16059S        S22863   6.530   2.484  24.547  0.0685  0.6582  0.1874
16060S        S22864   8.232  10.749  29.736  0.5289  0.0732 -0.0086
16061S        S22865   5.108  10.286  12.514 -0.2545  0.4141  0.0256
16062S        S22866   0.106  10.462  20.221  0.1829  0.2196 -0.6730
16063S        S22867   4.415   2.302  13.477 -0.2703  0.5823 -0.0390
16064S        S22868   9.702   3.045  13.138  0.2170 -0.0080  0.3879
16065S        S22869  12.174  12.319  25.123  0.1482  0.5489  0.2031
16066S        S22870   6.588   3.775  18.878 -0.1117  0.0071 -0.2618
16067S        S22871  10.978   3.699  29.816 -0.8195  0.0578 -0.2817
16068S        S22872   6.378   7.024  30.118 -0.0646  0.0443  0.9714
16069S        S22873   0.829  11.061  25.901 -0.3799 -0.0941  0.2282
16070S        S22874   4.448   3.558  15.637 -0.3194 -0.2289  0.2252
16071S        S22875   5.286   4.323  22.569 -0.0643 -0.2329  0.2582
16072S        S22876   4.388  10.107  21.762  0.4796  0.3366  0.0931
16073S        S22877  11.789   4.506  40.871  0.0390  0.4155  0.1879
16074S        S22878   8.816   0.684  19.884  0.1608 -0.4204  0.2624
16075S        S22879   7.319   6.106  15.433 -0.0535  0.1526 -0.0038
16076S        S22880  10.051   6.792  23.419 -0.3163 -0.3743 -0.4341
16077S        S22881   0.016   5.089  16.280  0.3133 -0.0523 -0.3987
16078S        S22882   1.214   7.464  15.556  0.6371  0.5514 -0.5863
16079S        S22883   4.133   4.583  13.480 -0.4561  0.4421 -0.0205
16080S        S22884   5.267   7.742  31.291 -0.4538 -0.4561  0.0072
16081S        S22885   9.857   7.752  19.767  0.2911  0.0391 -0.4703
16082S        S22886   4.505   3.214  26.035 -0.2314  0.2734  0.3449
16083S        S22887   8.039   7.522  28.884 -0.3431  0.3761  0.0373
16084S        S22888   2.353   2.745  14.052 -0.4285  0.0708  0.2840
16085S        S22889   6.365  11.831  12.468  0.2180 -0.0855 -0.0545
16086S        S22890   7.320  10.145  24.982 -0.0463  0.1255  0.7464
16087S        S22891   7.060   7.481  27.516  0.1091 -0.2374 -0.1040
16088S        S22892   9.766   2.083  15.884 -0.8143  0.4082  0.2867
16089S        S22893   7.032  10.784  24.981 -0.0232  0.3231 -0.0349
16090S        S22894  11.186   0.288   1.646  0.1073 -0.1698  0.0496
16091S        S22895   3.020   0.710  21.624  0.2286 -0.1214 -0.0734
16092S        S22896   0.716   5.794  26.323 -0.5445  1.1130  0.0270
16093S        S22897  10.804  11.111  18.181 -0.1588  0.5213  0.1275
16094S        S22898   8.020   0.005  25.634  0.2780 -0.2009  0.3614
16095S        S22899   5.366   6.919  21.656 -0.0799 -0.1004 -0.0115
16096S        S22900   2.592   3.955  14.710 -0.3097 -0.2484  0.4864
16097S        S22901   7.125   2.665  31.612  0.6585  0.1651  0.0183
16098S        S22902   3.774   7.221  24.952  0.1394 -0.1094 -0.0063
16099S        S22903   4.041   0.125  24.510  0.2067 -0.0279 -0.1095
16100S        S22904   6.416   3.452  19.237 -0.1262 -0.1044 -0.0795
16101S        S22905   4.669   4.566  11.957 -0.1467 -0.0040 -0.4409
16102S        S22906   9.148   9.651  14.898 -0.4670  0.2664 -0.7906
16103S        S22907   8.187   2.495  29.257  0.3808  0.4405 -0.0142
16104S        S22908  10.747  11.243  22.299 -0.2286 -0.3372  0.1935
16105S        S22909   0.212   2.194  26.797  0.3001 -0.0102  0.4959
16106S        S22910   0.310   9.773  25.752 -0.1737 -0.0090  0.4361
16107S        S22911   3.748   3.852  24.168  0.4281 -0.1167  0.1411
16108S        S22912   1.230   0.405  23.926 -0.3410 -0.6298 -0.1306
16109S        S22913   4.058  11.752  14.172  0.0924 -0.2836  0.1460
16110S        S22914   8.759   1.991  26.736  0.0316  0.1142  0.0877
16111S        S22915   4.710   7.863  19.997 -0.1097 -0.5200  0.1436
16112S        S22916  10.900   1.492  16.584  0.2991 -0.1483 -0.3328
16113S        S22917   9.197  11.759  28.248  0.7066  0.7457 -0.0324
16114S        S22918   6.611   7.168  19.994  0.4548 -0.0441 -0.0476
16115S        S22919  10.582   5.415  15.215 -0.3579 -0.1585 -0.4612
16116S        S22920  10.883  10.275  16.506 -0.2807 -0.1230 -0.4288
16117S        S22921   8.661  11.362  27.117 -0.0551  0.2091 -0.1991
16118S        S22922   6.234   8.783  17.463  0.1596  0.5228 -0.5254
16119S        S22923   1.435   6.483  19.064  0.0484  0.1459  0.4828
16120S        S22924   3.620   1.174  32.549  0.9034 -0.7632  0.1803
16121S        S22925  10.719   4.710  30.165 -0.4342  0.2985  0.1405
16122S        S22926   8.442  11.168  22.479  0.5763 -0.2133 -0.4153
16123S        S22927   7.803   1.232  17.865  0.1625 -0.0529  0.1939
16124S        S22928  10.100   5.539  28.329  0.0136 -0.0489 -0.1963
16125S        S22929   3.112  11.390  23.266 -0.7667  0.0671  0.0786
16126S        S22930   5.232   4.486  20.894 -0.4495  0.1430  0.1871
16127S        S22931  11.259   7.740  22.213  0.5139 -0.2708 -0.7577
16128S        S22932  10.654   3.055  22.408  0.2962 -0.9462 -0.1498
16129S        S22933   3.090   5.295  17.325 -0.0247  0.2310  0.2040
16130S        S22934   5.132   8.615  19.393  0.8406 -0.0656  0.1755
16131S        S22935   5.682   4.540  15.411  0.5288  0.2759 -0.0276
16132S        S22936   0.211   1.312  32.030  0.8011  0.2104  0.4002
16133S        S22937   9.087   3.173  29.067 -0.4105  0.0591 -0.5860
16134S        S22938   1.307   7.553  13.380 -0.0953 -0.1547 -0.5829
16135S        S22939   8.480  11.550  23.519 -0.2995  0.4942  0.2458
16136S        S22940  11.912   5.138  17.479  0.1561  0.1770  0.1385
16137S        S22941   4.084   6.608  22.945 -0.7590 -0.5047 -0.0650
16138S        S22942  10.410   2.231  12.613 -0.1173  0.3025  0.0196
16139S        S22943  10.831   2.030  20.918  0.1258  0.1361  0.2164
16140S        S22944   7.085  10.107  15.465 -0.1988 -0.6935  0.3517
16141S        S22945   2.755   3.506  14.905 -0.0238 -0.0696  0.4732
16142S        S22946   9.556   7.126  20.996 -0.2177 -0.3104 -0.5138
16143S        S22947   9.775   1.208  26.140  0.6192  0.2413  0.0703
16144S        S22948   1.433  12.010  22.107  0.1702  0.3597 -0.2417
16145S        S22949   5.825  10.194  28.371  0.1237  0.2691  0.5294
16146S        S22950   1.338   0.530  22.200 -0.4162 -0.1722  0.0701
16147S        S22951  11.300   9.851  25.488 -0.6021 -0.1204 -0.2166
16148S        S22952   3.927   4.232  22.899 -0.3031 -0.2628 -0.3131
16149S        S22953   0.516   4.550  30.765  0.1373 -0.0254 -0.1498
16150S        S22954   9.867   5.787  17.147 -0.2262  0.4248 -0.1353
16151S        S22955   0.349   7.623  12.205  0.0079  0.9114  0.0237
16152S        S22956   7.105   8.453  21.225  0.3009 -0.2629 -0.0629
16153S        S22957  10.711   7.200  20.570  0.3412  0.1561  0.2116
16154S        S22958   5.085  10.131  15.594  0.0311  0.4237  0.0978
16155S        S22959   6.045   6.373  30.078 -0.3301  0.9212 -0.3485
16156S        S22960   1.743   9.046  21.872  0.3088  0.6954 -0.0902
16157S        S22961   8.283  12.253  24.829  0.4505  0.6792  0.2051
16158S        S22962   6.694  10.338  18.681  0.0256 -0.0293  0.1565
16159S        S22963   2.460  10.477  25.556 -0.4555 -0.0471 -1.0240
16160S        S22964  10.005   1.150  14.910  0.0911  0.0435 -0.5069
16161S        S22965   2.549   4.550  18.682 -0.1446 -0.1432 -0.3545
16162S        S22966   0.269   1.622  26.560  0.0418  0.7503  0.2024
16163S        S22967   4.880   5.213  24.009  0.0902 -0.3939  0.2678
16164S        S22968   6.939   2.173  11.292 -0.4251  0.3240  0.2592
16165S        S22969  10.381   8.299  18.578  0.0021  0.4178  0.6476
16166S        S22970   9.744   9.198  23.942 -0.2174 -0.2034  0.0854
16167S        S22971   4.253   0.004  14.271 -0.2174  0.3498 -0.1308
16168S        S22972   7.786   8.960  11.366  0.4228 -0.1811 -0.1905
16169S        S22973   0.335   4.867  18.742 -0.2145 -0.3247 -0.1977
16170S        S22974   3.492   4.583  21.322  0.1739  0.1350 -0.0146
16171S        S22975   3.331   8.427  22.290  0.6451  0.2777 -0.2847
16172S        S22976   5.309   7.018  48.220  0.8507  0.0836 -0.2187
16173S        S22977  11.121   3.727  13.586 -0.4170 -0.8137 -0.1994
16174S        S22978   4.834   4.894  20.123 -0.1491 -0.1787  0.2618
16175S        S22979   1.022   3.746  17.093 -0.0799  0.2902 -0.2434
16176S        S22980   7.801   4.538  28.417  0.1786 -0.1363 -0.1081
16177S        S22981   0.286   7.403  19.829 -0.3923 -0.3237 -0.3067
16178S        S22982   4.973   1.026  14.251  0.3262 -0.1169  0.1549
16179S        S22983  11.618   0.500  13.561  0.1460  0.0676 -0.4600
16180S        S22984   1.376  10.598  23.045  0.1033  0.2042 -0.1989
16181S        S22985   5.108   5.069  27.676 -0.4763  0.2084  0.4848
16182S        S22986  10.064   8.353  12.606  0.1475 -0.3277 -0.0302
16183S        S22987   6.041   4.969  12.248 -0.1700 -0.2860 -0.2611
16184S        S22988  10.167   6.098  19.704  0.0007  0.1455  0.1037
16185S        S22989   3.483   7.659  29.000 -0.2604  0.0102 -0.2594
16186S        S22990   1.401   2.603  31.903  0.0107  0.2512  0.5968
16187S        S22991   5.578  10.235  16.455  0.3339 -0.3006 -0.0738
16188S        S22992   5.551   2.294  24.412 -0.2208  0.3143  0.0461
16189S        S22993   4.655  11.998  11.713 -0.3546  0.1993  0.0417
16190S        S22994   0.421  10.604  17.581 -0.2678  0.3402 -0.4317
16191S        S22995   3.420   4.674  16.243  0.0812  0.1654 -0.0226
16192S        S22996   2.109   4.947  26.696 -0.5467 -0.7084  0.6275
16193S        S22997   7.404   1.722  11.723 -0.3775  0.1268  0.2544
16194S        S22998   9.331   1.890   4.986  0.1249  0.3654  0.3091
16195S        S22999   5.487   6.251  25.689  0.2670  0.5812 -0.0172
16196S        S23000   7.837  12.062  22.026 -0.6004  0.0048 -0.1744
16197S        S23001   2.074   2.510  12.587  0.2265 -0.1769  0.1004
16198S        S23002   5.912   9.202   9.394  0.3222 -0.1595  0.1999
16199S        S23003   4.744   6.523  16.002  0.4023  0.2149 -0.1267
16200S        S23004   4.864   3.605  13.806  0.2008 -0.0026 -0.4619
16201S        S23005   4.338   7.685  12.002 -0.3285  0.1698  0.3483
16202S        S23006   8.496   2.943  32.300  0.4639  0.3345 -0.7314
16203S        S23007   7.499   9.795  11.250  0.7136  0.3098  0.0760
16204S        S23008   5.889   5.323  11.929  0.1210 -0.0762  0.6565
16205S        S23009   3.707   4.199  15.734 -0.1923 -0.0050 -0.0478
16206S        S23010   0.154   8.640  20.179  0.7269 -0.2456 -0.0903
16207S        S23011   2.072   2.281  27.338 -0.0625 -0.5449 -0.6167
16208S        S23012   2.113   1.908  28.490 -0.0750 -0.6356  0.0004
16209S        S23013   0.408   6.813  15.436 -0.0501 -0.0319 -0.3039
16210S        S23014  12.112  10.153  28.051  0.2113  0.4720  0.3599
16211S        S23015   9.537   4.229  16.988 -0.2712 -0.1057  0.0553
16212S        S23016   8.615   1.917  13.892  0.3618  0.5852 -0.0745
16213S        S23017   9.097   1.112  15.327  0.0946 -0.0322  0.1706
16214S        S23018   5.740   1.696  16.283 -0.4002  0.0845  0.3814
16215S        S23019   0.598   6.572  23.816 -0.0717 -0.3171 -0.2879
16216S        S23020   9.092   4.766   7.119  0.2953 -0.1317 -0.0627
16217S        S23021   7.395  12.319  21.095  0.2870 -0.2474 -0.1676
16218S        S23022   8.560   2.344   5.556 -0.3835  0.3727 -0.1238
16219S        S23023   1.481  10.180  21.834 -0.2454 -0.4014  0.7277
16220S        S23024   1.861  10.227  17.044 -0.1302  0.5781 -0.2670
16221S        S23025   7.807   9.737  11.639  0.6459 -0.2046 -0.8365
16222S        S23026   3.676   5.303  15.804  0.2458 -0.0821  0.2076
16223S        S23027   4.101   1.275  19.504  0.0004 -0.0465  0.0137
16224S        S23028   0.713   3.691  15.083  0.5829  0.2342  0.3381
16225S        S23029  10.609   5.363  26.076  0.0668  0.5160 -0.4411
16226S        S23030   8.320   1.571  23.917  0.4440 -0.0391 -0.1249
16227S        S23031   6.662   7.280  22.373  0.1650 -0.0675  0.0664
16228S        S23032  10.073  11.096  16.665 -0.2506  0.2150  0.6024
16229S        S23033   9.501   5.697  30.293 -0.0716 -0.3070 -0.2743
16230S        S23034   7.942   9.758  20.759 -0.0100  0.1893  0.1482
16231S        S23035   8.640   7.377  22.730 -0.1323 -0.2497  0.4617
16232S        S23036   4.770   1.320  30.992  0.5006 -0.1782 -0.2737
16233S        S23037   2.504   2.533  30.638  0.1121  0.2153 -0.3600
16234S        S23038   2.586   7.012  22.294  0.1400 -0.0498 -0.3536
16235S        S23039   4.619  12.314  14.618 -0.1282  0.6297 -0.5775
16236S        S23040  11.285   7.962  29.465 -0.4406 -0.4284  0.5685
16237S        S23041  10.001  10.374  25.722  0.1211 -1.0510 -0.2300
16238S        S23042   0.115   3.764  28.778 -0.4371 -0.1866 -0.0178
16239S        S23043   4.333   9.052  17.648  0.1309 -0.8533  0.4138
16240S        S23044   2.670   8.421  22.512  0.1471 -0.4013 -0.2819
16241S        S23045   1.079   3.674  12.230  0.0934 -0.6383  0.0801
16242S        S23046   8.125  12.236  32.257  0.1458  0.4815  0.0841
16243S        S23047   3.693   3.603  23.107 -0.1532 -0.6215 -0.1072
16244S        S23048  10.850   5.181  25.052  0.4121 -0.2022  0.0165
16245S        S23049   2.652   8.889  29.258  0.9779  0.3894 -0.9105
16246S        S23050   7.663  10.422  19.637 -0.3190 -0.4055  0.2621
16247S        S23051   1.964   2.527  31.550 -0.3158  0.1877  0.3255
16248S        S23052   8.193  12.120  19.944  0.1596  0.5835 -0.1484
16249S        S23053   3.898  10.700  27.640  0.3670 -0.0372  0.4248
16250S        S23054   3.757   4.208  31.866  0.2613  0.1888 -0.0387
16251S        S23055   8.759   3.595  15.128  0.2423  0.3123 -0.0841
16252S        S23056   2.949   3.662  18.452 -0.3511  0.0030  0.1057
16253S        S23057   9.308   4.304  20.050  0.6003 -0.0705  0.1993
16254S        S23058   3.443   9.261  19.352 -0.3614  0.4321  0.0106
16255S        S23059   4.591   3.085  18.714 -0.5598 -0.0104  0.4975
16256S        S23060   8.213   1.787  13.070 -0.0478 -0.1564  0.0859
16257S        S23061  10.367   1.518  17.900 -0.3130 -0.0065 -0.2327
16258S        S23062   6.538   9.555  18.834  0.0015 -0.6791  0.2428
16259S        S23063   4.830   8.682  16.991 -0.0992  0.4674  0.0957
16260S        S23064   1.796  11.255  30.441  0.1463 -0.1806 -0.1965
16261S        S23065  11.895   2.021  12.597  0.4955 -0.1149  0.0656
16262S        S23066  10.018   7.369  12.819  0.4081 -0.0367 -0.6002
16263S        S23067   7.912   6.684  27.243 -0.1595 -0.2003  0.5215
16264S        S23068   0.633   7.735  16.465 -0.2770  0.1980  0.2681
16265S        S23069   0.867   0.886  23.532 -0.0899  0.3677  0.8834
16266S        S23070   7.070   7.490  15.611 -0.5019 -0.2063 -0.2054
16267S        S23071   2.812  10.123  12.719  0.4194  0.1456 -0.2449
16268S        S23072   0.018  12.113  19.418 -0.0334 -0.1671  0.0350
16269S        S23073  11.998   1.654  20.434 -0.4140 -0.1629 -0.5359
16270S        S23074  10.052   0.635  17.700  0.2122 -0.3271  0.4579
16271S        S23075  10.013   6.694  22.856  0.0484 -0.7372  0.5406
16272S        S23076  10.972   4.591  13.553 -0.1564  0.2246  0.0304
16273S        S23077   9.882   5.151   5.438 -0.0219 -0.3775 -0.1588
16274S        S23078   7.392   6.526  25.810 -1.5333 -0.6698  0.5857
16275S        S23079   2.047  11.788  23.472 -0.4129  0.3422 -0.4003
16276S        S23080   6.430   1.178  25.834  0.0006  0.5004 -0.5290
16277S        S23081   8.247  10.257  20.455 -0.5839  0.2237 -0.2220
16278S        S23082   8.029   8.996  27.698 -0.5820  0.0369 -0.2201
16279S        S23083   4.575   1.290  24.549  0.6344  0.4074  0.3172
16280S        S23084   7.695   3.072  30.126  0.1851 -0.6403  0.0810
16281S        S23085   6.433   7.150  27.849 -0.1324  0.2011 -0.7158
16282S        S23086   9.632   0.748  13.688 -0.0636 -0.3627  0.6344
16283S        S23087   5.049  12.239  32.439 -0.6412  0.1644 -0.0027
16284S        S23088   2.908   9.662  14.787  0.4195 -0.2987 -0.4817
16285S        S23089   8.328  11.911  28.614  0.4379 -0.6306 -0.8007
16286S        S23090   7.217   0.384  15.627 -0.4796  0.1297 -0.4552
16287S        S23091   5.176  10.310  13.426  0.0907  0.0486 -0.4267
16288S        S23092   0.086   1.375  32.559  0.4469 -0.1445  0.6267
16289S        S23093   6.601   5.051  21.289  0.4253 -0.4285 -0.5434
16290S        S23094   7.774   6.720  28.298  0.4416 -0.0327 -0.0005
16291S        S23095   9.028   2.376  20.388  0.2946 -0.5419  0.0322
16292S        S23096   6.544  10.332  15.297  0.0119  0.0370 -0.0403
16293S        S23097   7.170   2.321  22.447 -0.2021 -0.1519 -0.0076
16294S        S23098   4.967   1.786  25.279 -0.1496  0.1812 -0.0940
16295S        S23099   7.170   3.657  31.408  0.1932  0.3886  0.2164
16296S        S23100   7.130   2.597  11.460 -0.3489  0.0870 -0.0933
16297S        S23101   0.532   8.204  11.096 -0.2962 -0.3249  0.2882
16298S        S23102  11.537   6.116  28.636  0.4708  0.0599  0.1331
16299S        S23103  11.261   7.172  24.740 -0.3619  0.7756  0.1269
16300S        S23104   2.860   7.380  18.118 -0.5493  0.0812 -0.3016
16301S        S23105  10.824   9.167  15.033  0.0813  0.1519 -0.4349
16302S        S23106   0.049   9.518  19.036 -0.2813  0.2755 -0.2231
16303S        S23107  11.367   1.314  17.749  0.5889  0.1035  0.1164
16304S        S23108   6.676   9.950  20.971  0.1323  0.0410 -0.1221
16305S        S23109   5.582   9.568  18.523 -0.0511 -0.3263 -0.2108
16306S        S23110   2.670   3.157  21.433 -0.3537  0.1086  0.1407
16307S        S23111   8.046   8.069  23.381  0.1518 -0.3681 -0.0502
16308S        S23112   4.837  11.439  11.557 -0.2975 -0.5784 -0.1655
16309S        S23113  11.997   8.514  17.468  0.2294  0.0370  0.4263
16310S        S23114  12.196   8.199  18.995 -0.1630  0.0521  0.0546
16311S        S23115   6.003   6.565  20.823  0.2734 -0.0198 -0.2140
16312S        S23116   0.254   0.896  23.791 -0.1549 -0.1573 -0.3436
16313S        S23117  10.870  10.957  23.701 -0.1919 -0.4257 -0.4361
16314S        S23118  11.217   8.247  24.796 -0.0918  0.5530 -0.2941
16315S        S23119   7.475  10.488  13.066  0.4844 -0.3750  0.1791
16316S        S23120   5.392  11.891  11.887  0.2647  0.4232  0.2967
16317S        S23121   0.159   6.754  20.183  0.0985 -0.2172 -0.2867
16318S        S23122   6.439  10.867  25.840 -0.0297  0.1428  0.6415
16319S        S23123   8.325   3.208  24.372 -0.1628  0.3439  0.0803
16320S        S23124  11.148   6.686  31.689 -0.1164 -0.2710 -0.0623
16321S        S23125   4.152   2.148  16.967  0.4631  0.1862 -0.0899
16322S        S23126   8.568  11.110  23.306 -0.4209  0.3548  0.2699
16323S        S23127   9.569  11.990  31.875 -0.1483  0.1813  0.3390
16324S        S23128  10.123   4.640  28.767 -0.4413 -0.3680  0.0466
16325S        S23129   9.391   6.929  15.615 -0.4666  0.3796 -0.0610
16326S        S23130  10.764   7.775  20.653 -0.0972  0.0640 -0.3553
16327S        S23131   6.847   6.716  25.597  0.3407 -0.3138 -0.9680
16328S        S23132  11.327   7.807  17.009 -0.0584 -0.0424 -0.0710
16329S        S23133   6.372   0.687  22.530  0.1388  0.0186  0.1584
16330S        S23134   5.194  11.849  29.920 -0.5715  0.0066 -0.1925
16331S        S23135   9.936   2.024  20.606  0.4303 -0.1063  0.2035
16332S        S23136  10.942  10.123  30.240 -0.1213 -0.2407 -0.1717
16333S        S23137   0.306   5.925  12.272 -0.3110  0.0527  0.0736
16334S        S23138   9.823  11.623  28.902  0.3214 -0.0281  0.2643
16335S        S23139   9.079   6.815  11.194 -0.7795 -0.3492 -0.8189
16336S        S23140   4.379   5.601  23.973  0.0302 -0.9693  0.3762
16337S        S23141   3.197   6.924  24.997  0.4353 -0.3447  0.1287
16338S        S23142   9.781   4.930  25.916  0.7078  0.0822 -0.2730
16339S        S23143   5.774   3.624  24.569 -0.3165  0.2471  0.0647
16340S        S23144   3.904   2.074  27.782  0.2920  0.3885  0.1717
16341S        S23145  11.003   1.501  28.407 -0.6436  0.5407  0.1890
16342S        S23146   1.746   2.465  41.177 -0.0858 -0.3261  0.5216
16343S        S23147  11.197   8.790  18.646 -0.2174 -0.3372 -0.0035
16344S        S23148   4.604   8.386  18.814 -0.6824  0.2159  0.0081
16345S        S23149   2.736   0.641  12.535  0.0717  0.1802  0.0840
16346S        S23150   7.512   8.319  15.260  0.3032  0.0054  0.1379
16347S        S23151   9.065   0.705  18.946  0.0890 -0.0349 -0.1343
16348S        S23152   4.881   4.147  12.322  0.5159 -0.1200  0.2503
16349S        S23153   1.079   0.820  25.675 -0.1165 -0.0938  0.4348
16350S        S23154   8.298   2.385  32.195  0.4681  0.1715  0.6952
16351S        S23155   8.983  11.878  21.332  0.4110  0.1484  0.5208
16352S        S23156   5.702  11.668  11.087  0.0257  0.3787  0.6856
16353S        S23157   3.994   0.805  20.518 -0.0141 -0.3486  0.1208
16354S        S23158  12.078   5.491   6.025  0.0910 -0.0291  0.0873
16355S        S23159   7.972   8.323  21.788 -0.1057  0.3453 -0.1111
16356S        S23160   2.156   1.680  14.981  0.7476  0.3286  0.1782
16357S        S23161  11.563   4.742  11.628  0.1010  0.1917  0.0579
16358S        S23162   3.608   2.464  27.900 -0.3762 -0.0821 -0.4529
16359S        S23163   7.771   9.082  15.470  0.0663  0.6448 -0.1482
16360S        S23164   2.141   0.767  25.248 -0.0845  0.0764  0.3259
16361S        S23165  11.033   0.561  25.023 -0.1932  0.2076  0.3019
16362S        S23166   6.970  11.411  26.437 -0.0222 -0.0540  0.3433
16363S        S23167   4.464  11.534  28.070  0.4604 -0.1466  0.0069
16364S        S23168   2.732   7.697  19.958  0.0282 -0.1039 -0.3669
16365S        S23169   5.491   4.780  20.570  0.0656 -0.0674  0.1297
16366S        S23170   6.186   0.696  14.636  0.1038  0.2217 -0.2222
16367S        S23171   9.454  10.614  16.108  0.0742  0.1982 -0.1627
16368S        S23172   9.526   4.757  19.559  0.1964  0.4102 -0.3223
16369S        S23173  11.602  10.647  17.099  0.0799  0.8046  0.2498
16370S        S23174   8.066   1.692  14.176  0.5928 -0.1779  0.1832
16371S        S23175   4.440   0.187  20.971  0.0567  0.3027  0.3626
16372S        S23176   8.263   9.309  28.812  0.1556 -0.0298 -0.2239
16373S        S23177  11.578  12.241  24.288  0.5941 -0.3256 -0.1227
16374S        S23178   9.444   5.528  31.247  0.6508 -0.8436  0.2239
16375S        S23179   1.052  11.256  24.584 -0.2357 -0.3910 -0.2761
16376S        S23180   1.280  10.082  27.808  0.0427 -0.1595  0.0836
16377S        S23181   3.342  11.987  13.133  0.4535  0.1530 -0.1861
16378S        S23182   7.077   3.839  16.077 -0.1724 -0.1269  0.0275
16379S        S23183   1.851   6.561  12.936  0.4124 -0.4697  0.0221
16380S        S23184   1.900   7.264  14.566  0.0952  0.1895 -0.8208
16381S        S23185   3.008  10.310  17.965 -0.2810 -0.1858 -0.2115
16382S        S23186   4.856   9.001  17.423  0.0210 -0.3281 -0.0264
16383S        S23187   3.276   5.487  18.790  0.0809  0.2261 -0.5106
16384S        S23188   8.565   2.640  28.674 -0.1818  0.4481 -0.3122
16385S        S23189  10.412   6.565  30.967 -0.0219 -0.2270  0.6071
16386S        S23190  12.159   0.170  19.620  0.5987 -0.1305  0.5462
16387S        S23191  10.144   1.269  16.891  0.0641 -0.1889  0.2665
16388S        S23192   3.436   2.800  13.933 -0.3917  0.0113  0.0588
16389S        S23193   8.951   8.091  18.927  0.0271  0.2109 -0.8025
16390S        S23194   2.189   0.855  18.076  0.1209 -0.1229 -0.5346
16391S        S23195  11.359  10.911  30.399  0.2509 -0.1901  0.6247
16392S        S23196   0.963   0.835  20.496  0.2062  0.0556 -0.3589
16393S        S23197   9.153   9.453  21.935 -0.2990  0.3693  0.0812
16394S        S23198  12.213   6.550  15.110  0.0987  0.0848  0.0423
16395S        S23199   5.869   5.997  16.127  0.3386 -0.3002  0.0479
16396S        S23200   3.567   5.715  14.419 -0.1993 -0.5686  0.0480
16397S        S23201   2.540   1.239  25.419 -0.0583  0.5671 -0.0531
16398S        S23202   9.851   8.283  17.792 -0.0756 -0.0095  0.3171
16399S        S23203   1.266   6.935  17.633  0.2982 -0.5571  0.6092
16400S        S23204   5.909   7.970  25.835 -0.1715 -0.0876  0.0702
16401S        S23205   0.808   9.714  30.775  0.5317 -0.1053  0.1697
16402S        S23206   8.398   5.352  32.998  0.3820  0.1368  0.1323
16403S        S23207   7.857   4.163  14.261 -0.2981  0.1051 -0.0905
16404S        S23208   2.018   9.929   0.962  0.1908  0.0138  0.2149
16405S        S23209   9.304   2.001  15.664  0.0030 -0.4401 -0.3785
16406S        S23210   5.252   0.291  21.698 -0.3404 -0.4462 -0.2282
16407S        S23211   1.646   4.108  28.482 -0.1603  0.0403 -0.1173
16408S        S23212  11.630   1.744  19.121  0.0469 -0.2907  0.0725
16409S        S23213   7.249   0.624  21.561  0.0637  0.5172  0.4887
16410S        S23214  11.295   1.844  27.006 -0.2435 -0.5435  0.1755
16411S        S23215  11.172   2.376  20.215  0.2235  0.2831 -0.1003
16412S        S23216   3.144   0.258  22.387 -0.1708 -0.0739 -0.0421
16413S        S23217   7.445   6.382  27.048 -0.0523  0.0936  0.2473
16414S        S23218   7.704   9.511  15.752  0.0455  0.3804  0.2904
16415S        S23219   1.970  10.769  27.893  0.2333 -0.4032 -0.0382
16416S        S23220   9.182   0.051  20.031 -0.3568 -0.3952  0.0622
16417S        S23221   2.964   8.682  20.430  0.0200  0.0369  0.2975
16418S        S23222   2.998   0.459  13.731 -0.4694  0.0658  0.3637
16419S        S23223   5.174   3.854  23.261 -0.1108 -0.3965 -0.0862
16420S        S23224  12.100  11.446  12.317  0.2160  0.1787  0.0116
16421S        S23225   8.332   2.755  30.689  0.0618  0.3107 -0.1648
16422S        S23226  11.418   4.903  13.611  0.2402  0.0497  0.7323
16423S        S23227   8.675   7.468  12.906 -0.5411 -0.2641  0.1387
16424S        S23228   3.737   2.086  12.913  0.5250  0.2284 -0.1637
16425S        S23229   1.213   5.124  15.575 -0.0829  0.4870 -0.2648
16426S        S23230   1.159   5.985  19.620  0.1712  0.2713  0.0512
16427S        S23231   2.033   8.335  12.742 -0.1774 -0.0116 -0.1651
16428S        S23232   5.895  10.678  29.476  0.6953  0.1888  0.0659
16429S        S23233   3.321  10.988  15.424  0.2628  0.2302 -0.3308
16430S        S23234   4.561   1.853  16.978 -0.0445  0.4068  0.0572
16431S        S23235   8.004  11.999  13.263  0.0920  0.0701 -0.3491
16432S        S23236   7.822   0.167  17.183 -0.2596  0.0921  0.2996
16433S        S23237   4.094   3.990  26.219  0.2648  0.2068 -0.3952
16434S        S23238   8.430   0.757  30.025 -0.2491 -0.1786 -0.7110
16435S        S23239   3.337   4.240  21.670  0.2226 -0.1550 -0.4994
16436S        S23240   5.852   0.391  27.400  0.1924  0.1037 -0.1552
16437S        S23241   7.159   0.833  40.950 -0.2239 -0.0238  0.4810
16438S        S23242  11.214   3.109  22.245  0.0151 -0.3747  0.3354
16439S        S23243   1.374  10.269  12.731 -0.2804  0.4238  0.1599
16440S        S23244   5.029   4.311  14.588  0.1117 -0.9101  0.0268
16441S        S23245   2.910  11.301  16.957  0.2124  0.1937 -0.2384
16442S        S23246   4.645   7.838  12.430 -0.2689  0.0423 -0.2278
16443S        S23247   6.965   6.195  20.686  0.3740  0.1218  0.0042
16444S        S23248   1.649   3.390  13.906 -0.2752 -0.0511  0.0416
16445S        S23249   8.768   5.864  15.868  0.0318  0.1628 -0.3188
16446S        S23250   3.285   6.907  20.326  0.5144 -0.0139 -0.0902
16447S        S23251   7.604   2.103  16.237 -0.5536 -0.1151  0.3460
16448S        S23252   2.952   7.980  12.963  0.3892  0.2050 -0.2414
16449S        S23253   8.212   6.788  20.179 -0.0965 -0.4273  0.5115
16450S        S23254   3.875   8.487  30.559 -0.3986  0.2463  0.0707
16451S        S23255   7.899   6.747  12.042  0.2638  0.6918 -0.2680
16452S        S23256   1.416   0.423  12.249 -0.1447 -0.2281 -0.1137
16453S        S23257   8.390   2.072  16.646 -0.3400  0.3228  0.1150
16454S        S23258   3.523   3.240  22.042  0.0887  0.0223  0.2699
16455S        S23259   6.060   2.123   2.136 -0.1800  0.2773  0.3487
16456S        S23260   9.975   5.443  16.750  0.4994 -0.4455  0.4208
16457S        S23261   6.928   5.793  17.270  0.6303 -0.1390  0.0466
16458S        S23262   4.930   1.292  28.602  0.0701 -0.3914 -0.2868
16459S        S23263   9.519   0.323  30.718  0.0189  0.1715 -0.7124
16460S        S23264  10.420   2.656  18.896  0.0840 -0.1791 -0.1056
16461S        S23265   4.625   0.814  19.597  0.0822 -0.0839  0.0001
16462S        S23266   2.534  10.991  29.557 -0.5188 -0.6579  0.4025
16463S        S23267   3.638   5.849  27.685  0.2332  0.5805  0.1723
16464S        S23268  10.539   1.303  27.282 -0.4616  0.1853 -0.0684
16465S        S23269   1.573   1.147  27.249 -0.1332  0.3820 -0.1991
16466S        S23270   1.646   5.319  25.010 -0.0665 -0.4876  0.4956
16467S        S23271   9.176   1.173  27.566 -0.0545 -0.2635 -0.2734
16468S        S23272   9.700   8.172  34.982 -0.3200  0.2794  0.3683
16469S        S23273   2.889   5.293  21.031 -0.0126  0.6652 -0.3837
16470S        S23274   8.271  11.544  14.100 -0.0625  0.1502  0.0643
16471S        S23275   9.808   5.589  13.472  0.3545  0.1457  0.0404
16472S        S23276   5.630   4.798  25.126 -0.0085 -0.0704  0.0889
16473S        S23277   9.746   6.242  16.425  0.1603  0.0921  0.0572
16474S        S23278  11.119   3.457  14.027  0.0360 -0.0848 -0.0145
16475S        S23279  11.039  12.070  18.295  0.0917 -0.0585  0.0297
16476S        S23280   9.151   1.651  30.556  0.3058  0.1312 -0.1747
16477S        S23281  10.929   0.447  32.526  0.2284  0.0652 -0.8509
16478S        S23282  10.745   3.833  18.921  0.2450 -0.2477  0.3102
16479S        S23283   2.362   6.554  15.608 -0.1839 -0.0792 -0.2186
16480S        S23284   9.407   2.774  22.073  0.0302 -0.3879 -0.2579
16481S        S23285   1.280   7.212  18.139 -0.1067  0.0998 -0.6951
16482S        S23286   0.393   3.018  27.542 -0.5277  0.0397 -0.2521
16483S        S23287   5.936  12.243  23.809 -0.1274  0.2079 -0.1454
16484S        S23288   3.259   0.529  25.171  0.0483  0.0298 -0.2580
16485S        S23289   2.045  11.125  26.397 -0.3013  0.0849  0.1128
16486S        S23290   9.140   0.909  14.862 -0.7234  0.3018 -0.3405
16487S        S23291   4.435   3.227  14.178 -0.6480  0.1452  0.1692
16488S        S23292   2.686   3.151  17.574  0.0478 -0.7342  0.0418
16489S        S23293   4.295   3.095  28.955 -0.2116  0.0342  0.1011
16490S        S23294   5.087   9.556  30.251 -0.1617  0.3821  0.6626
16491S        S23295   6.905  11.758  27.903  0.1043  0.5052  0.1190
16492S        S23296   5.861   7.424  29.329  0.2322 -0.5718 -0.7117
16493S        S23297   8.424   7.590  19.008  0.0333 -0.6044 -0.0781
16494S        S23298   1.253   0.652  15.585 -0.1644 -0.0429  0.2131
16495S        S23299   9.149   1.905  17.320  0.0754 -0.0892  0.2214
16496S        S23300   2.079   7.368  24.806 -0.1812  0.3845 -0.4344
16497S        S23301   4.576   0.059  11.393  0.1120  0.1761  0.0369
16498S        S23302   7.941   8.493  20.547  0.1382 -0.1744 -0.2925
16499S        S23303   4.514   0.515  25.923 -0.0251  0.1830 -0.4485
16500S        S23304   5.085   2.246  23.640  0.3443 -0.0192  0.3545
16501S        S23305   7.943  10.424  12.734 -0.1695 -0.0644  0.1375
16502S        S23306   6.555  11.048  30.065 -0.0084 -0.2424 -0.1364
16503S        S23307   9.689  10.858  12.557  0.1525  0.0408  0.1040
16504S        S23308   1.041   1.160  27.072  0.0163  0.1513  0.1186
16505S        S23309   3.940   0.592  27.901 -0.1664 -0.4849 -0.3436
16506S        S23310   3.336  12.058  18.887  0.1084  0.1724 -0.0491
16507S        S23311   9.112   3.932  20.415  0.0300  0.1819  0.0587
16508S        S23312   6.047  11.708  28.430  0.2422  0.3865 -0.2842
16509S        S23313   5.037   4.685  11.388  0.3176 -0.0360 -0.2755
16510S        S23314   7.589   7.365  32.985 -0.0400  0.0137  0.3674
16511S        S23315   6.474  11.038  21.926  0.0825  0.2482 -0.0364
16512S        S23316   6.411   1.648  13.337  0.1701  0.3207 -0.2775
16513S        S23317   8.489   1.332  19.403 -0.1729 -0.6893 -0.4165
16514S        S23318   3.401   6.808  31.021 -0.1632 -0.0719 -0.8288
16515S        S23319   3.607   3.589  13.423  0.6343 -0.2156  0.0908
16516S        S23320   4.563   7.792  18.076 -0.0181 -0.4650  0.0845
16517S        S23321   7.048   5.704  21.616 -0.3242 -0.4874 -0.6135
16518S        S23322   6.674   7.847  25.458  0.7278 -0.7646  0.3586
16519S        S23323   0.487   5.084  21.905 -0.5431  0.4684 -0.4617
16520S        S23324   9.745   6.062  31.346 -0.2862  0.3477  0.5774
16521S        S23325   5.113   2.605  31.616  0.3609  0.0143 -0.1473
16522S        S23326   1.353  12.144  19.459  0.5557  0.5457  0.2570
16523S        S23327   0.457  10.273  12.986 -0.0347  0.9946 -0.2568
16524S        S23328  11.595   3.192  14.658  0.5505 -0.1989 -0.1874
16525S        S23329   7.772   2.377  15.808  0.5583  0.3588  0.0257
16526S        S23330   9.888   9.590  27.710 -0.8489 -0.4706 -0.0803
16527S        S23331   5.884   5.323  14.451  0.0213 -0.0762  0.2533
16528S        S23332  10.033   4.263  24.834  0.2778 -0.1603 -0.1827
16529S        S23333  10.062  11.634  12.727 -0.0710  0.2929  0.0187
16530S        S23334   9.700   9.180  30.450 -0.1403  0.1002  0.6256
16531S        S23335   1.739   1.015  24.933  0.1250  0.0032  0.0887
16532S        S23336   3.003   8.843  24.973  0.2312 -0.3460 -0.3700
16533S        S23337   1.999   3.372  28.932 -0.4633 -0.3016  0.6478
16534S        S23338   9.101   1.443  13.231  0.2355  0.0420  0.2417
16535S        S23339   5.802   3.087  23.407 -0.3498 -0.4510 -0.0253
16536S        S23340  10.905   4.399  22.086 -0.4774  0.4882 -0.2048
16537S        S23341   4.063   0.561  30.834 -0.4441 -0.5780  0.6825
16538S        S23342   3.605   2.916  22.520 -0.3370  0.5739  0.2928
16539S        S23343   2.865  10.080  12.146 -0.0179  0.1747  0.5720
16540S        S23344   1.192   5.483  32.626 -0.2378 -0.3674  0.4254
16541S        S23345   0.747   1.668  24.502  0.1614  0.2423 -0.4069
16542S        S23346   8.817   4.243  18.974  0.0202 -0.0229 -0.1445
16543S        S23347   7.082   3.955  14.658 -0.4095 -0.3154 -0.3687
16544S        S23348   4.449   3.586  14.510 -0.5037  0.1092  0.2438
16545S        S23349   1.996   7.668  18.605  0.2858 -0.4076 -0.0260
16546S        S23350   7.287   1.890  22.185 -0.3689  0.1836  0.2956
16547S        S23351   1.111  12.233  28.430 -0.3608 -0.3462  0.0730
16548S        S23352   8.319   3.651  16.329 -0.1545  0.1958 -0.2358
16549S        S23353  12.198   7.270  15.182  0.1641 -0.2731  0.3487
16550S        S23354   9.017   6.941  14.653  0.0958  0.1802 -0.2426
16551S        S23355  10.531   8.215  20.975 -0.0608  0.2218  0.0060
16552S        S23356   7.847   8.618  29.933 -0.0762 -0.2623  0.3135
16553S        S23357   7.409   3.259  13.993 -0.0803  0.1228  0.1725
16554S        S23358   4.769   6.173  20.280 -0.2774  0.1410 -0.0301
16555S        S23359  10.766  10.661  19.744 -0.2777  0.0337  0.3477
16556S        S23360   0.255  11.869  27.626 -0.0238 -0.4202  0.2204
16557S        S23361   5.195   2.749  23.481 -0.2528 -0.4421  0.0269
16558S        S23362   7.941   6.225  11.412 -0.3121  0.0233  0.3043
16559S        S23363   1.933   4.938  31.228 -0.4158  0.2192  0.1355
16560S        S23364   8.437   4.809  16.932  0.0298  0.5363  0.1599
16561S        S23365   9.091   3.486  18.242  0.0527  0.2682  0.3228
16562S        S23366   7.153   0.471  14.661  0.1857 -0.1764 -0.0683
16563S        S23367   4.614   8.803  24.225  0.1545 -0.2253  0.2643
16564S        S23368   2.108   1.442  22.245 -0.3070  0.4544  0.3055
16565S        S23369   5.103   1.478  14.475 -0.2816  0.1741 -0.2010
16566S        S23370  12.033   9.575  29.946  0.4566  0.1182  0.3010
16567S        S23371   7.451   3.602  25.936 -0.2588  0.0558  0.2427
16568S        S23372   2.449  10.359  21.793  0.0342  0.5890 -0.2151
16569S        S23373  11.131   6.928  24.235  0.0278  0.4195  0.0096
16570S        S23374   2.577   8.079  14.368  0.0161 -0.3775  0.0854
16571S        S23375   1.845   1.487  24.772 -0.0665  0.0482 -0.2486
16572S        S23376   7.652   3.660  29.286  0.0545 -0.0803 -0.3281
16573S        S23377   7.168   3.801  20.820  0.2193  0.2290  0.0940
16574S        S23378   7.065   6.797  25.061 -0.4173  0.0251  0.1783
16575S        S23379   7.946   7.695  19.947  0.0637 -0.0330 -0.0165
16576S        S23380   7.875   0.524  26.351 -0.3707 -0.0783  0.6792
16577S        S23381   7.416   3.502  29.897 -0.6550  0.2722  0.1197
16578S        S23382   6.976   8.579  12.937 -0.4846 -0.5015  0.1045
16579S        S23383   5.737   6.575  47.371 -0.1610 -0.1976  0.8678
16580S        S23384   2.824   9.321  20.835  0.2519 -0.1291 -0.6644
16581S        S23385   6.928  11.022  25.874  0.1752  0.5352 -0.1711
16582S        S23386   6.874   7.438  12.847 -0.1827  0.4914 -0.1999
16583S        S23387  10.729   3.924   8.431  0.4723  0.2706 -0.4407
16584S        S23388   1.530  11.046  21.776 -0.1466 -0.3962 -0.3665
16585S        S23389   7.748  11.838  20.148 -0.2234  0.0584 -0.5792
16586S        S23390   3.694  11.423  21.587 -0.2503 -0.4204  0.0291
16587S        S23391   4.643   1.126   4.546  0.3511 -0.2757  0.0521
16588S        S23392   8.315   7.379  39.688 -0.5414  0.0103  0.1365
16589S        S23393   1.907   6.009  27.902 -0.0627  0.2565 -0.1710
16590S        S23394   5.468  11.012  12.431 -0.0112  0.3721 -0.0414
16591S        S23395  11.988   2.040  13.927 -0.0821 -0.1254 -0.1241
16592S        S23396   6.672   0.205  26.315 -0.1364 -0.5155 -0.1991
16593S        S23397   7.167   3.261  24.160 -0.2827  0.3444  0.6579
16594S        S23398   9.508   5.506  26.142  0.1614  0.4360  0.2584
16595S        S23399   6.108  10.805  31.117  0.0520  0.3166 -0.5767
16596S        S23400   0.695  12.349  20.712  0.1207 -0.4549 -0.5292
16597S        S23401   9.023   3.360  16.882 -0.5652 -0.4309 -0.0426
16598S        S23402  11.419   5.598  20.911  0.0558  0.1082 -0.3367
16599S        S23403   8.731   0.059  24.003 -0.1744  0.2809  0.3293
16600S        S23404  10.424   7.222  24.870 -0.6180 -0.1534 -0.5266
16601S        S23405  10.845  11.387  19.307  0.0762 -0.3404 -0.0945
16602S        S23406  10.485   2.398  11.577 -0.0467  0.3040  0.1989
16603S        S23407   7.737   1.988  29.505 -0.1441  0.6326 -0.7234
16604S        S23408   3.967   4.350  26.630 -0.1606  0.2509 -0.1052
16605S        S23409   3.927  10.090  21.478  0.1241  0.2682  0.1902
16606S        S23410  12.012   4.634  13.656 -0.4851 -0.0061  0.1100
16607S        S23411   2.206   2.752  17.008 -0.3521 -0.1421  0.3665
16608S        S23412   8.096   1.868  26.829 -0.4396 -0.1857 -0.1886
16609S        S23413  11.773   5.374  20.573 -0.3884  0.2617  0.3297
16610S        S23414   2.831   1.271  21.117  0.2372  0.1657  0.4411
16611S        S23415   0.233  10.608  11.157 -0.0196  0.2311  0.3187
16612S        S23416   5.186   1.976  26.305 -0.1104  0.4658  0.0821
16613S        S23417  11.089   3.469  27.541  0.3827 -0.3687 -0.6878
16614S        S23418   7.011   8.312  14.272  0.0679 -0.2746 -0.3403
16615S        S23419   3.641   2.420  22.307 -0.8870 -0.1297  0.1927
16616S        S23420   7.840   0.947  24.874 -0.0668  0.0407 -0.0040
16617S        S23421  11.448   3.886  21.588 -0.6808 -0.2683  0.5067
16618S        S23422   1.895  12.252  25.484  0.2232  0.0223 -0.3905
16619S        S23423   1.337   0.301  27.572 -0.2183 -0.7592  0.2442
16620S        S23424   3.757   1.267  19.070  0.1876 -0.2427  0.0945
16621S        S23425   6.169   8.599  20.108  0.1243  0.5804 -0.0559
16622S        S23426   8.216   3.188  15.329  0.0641 -0.2644 -0.4291
16623S        S23427   5.543   7.759  16.787 -0.3934 -0.2286  0.2857
16624S        S23428   5.797   5.669  29.387  0.1658 -0.0894 -0.2719
16625S        S23429   5.291   6.976  23.026  0.0489  0.1755 -0.2598
16626S        S23430   9.725   9.701  23.821  0.0235  0.1925  0.0764
16627S        S23431   9.529   8.562   5.260 -0.2887 -0.3676  0.1786
16628S        S23432   6.479  11.542  16.703  0.0789  0.1879 -0.4251
16629S        S23433   7.279   6.197  19.134 -0.0579 -0.2763 -0.2980
16630S        S23434   0.266   9.314  17.704  0.0978  0.4394 -0.2387
16631S        S23435   7.282   7.030  28.597  0.3493 -0.2557 -0.6649
16632S        S23436   6.125   5.606  12.296  0.2843 -0.2643  0.6691
16633S        S23437   8.331   5.006  11.734 -0.3579 -0.0397 -0.3637
16634S        S23438   4.981   1.440  28.037  0.2605  0.5710 -0.2645
16635S        S23439   3.679  10.562  15.101  0.4726 -0.7553  0.2067
16636S        S23440   3.525  11.745  25.735  0.2265 -0.1074 -0.3341
16637S        S23441   6.203   0.266  14.086 -0.1694 -0.0196  0.0015
16638S        S23442   7.362   3.890  11.478 -0.1070 -0.0081  0.0527
16639S        S23443   7.648   3.799  13.948 -0.2998  0.2515  0.2225
16640S        S23444   8.562   7.815  14.897 -0.0627  0.0363 -0.2324
16641S        S23445   6.972   7.285  29.249 -0.6438 -0.1275 -0.5117
16642S        S23446   8.412   5.959  14.628  0.0571 -0.3211  0.4080
16643S        S23447   6.546   6.498  20.819  0.0920 -0.1497 -0.1216
16644S        S23448   0.985   6.212  13.010  0.0338  0.7945 -0.4154
16645S        S23449   6.950   8.836  26.366  0.0031  0.0947  0.8878
16646S        S23450   0.400   2.157  19.036 -0.0548 -0.4015  0.0830
16647S        S23451   0.212   7.928  24.140  0.2014  0.1907 -0.1916
16648S        S23452  10.024  11.849  24.959 -0.3053 -0.1356  0.2039
16649S        S23453   4.743  11.527  19.748 -0.1184 -0.2789  0.1091
16650S        S23454   2.029   9.486  24.097 -0.0692 -0.0603 -0.6663
16651S        S23455   0.739   9.136  19.681  0.3333  0.4039 -0.1884
16652S        S23456   9.200   7.798  16.352 -0.0554  0.3122 -0.2907
16653S        S23457   5.028   6.028  25.320  0.1258 -0.3451 -0.0275
16654S        S23458   2.135   3.876  21.511  0.1294 -0.2272  0.0425
16655S        S23459   2.605  10.368  18.938  0.4332  0.1505 -0.2854
16656S        S23460  10.189   4.484  18.382  0.3935 -0.0591  0.5289
16657S        S23461   9.496  11.904  25.547 -0.1859  0.4473  0.3991
16658S        S23462   6.235   9.412  22.653  0.3211 -0.4464  0.0833
16659S        S23463   0.719   9.124  25.009 -0.0659  0.1059  0.5471
16660S        S23464  10.416   6.649  22.521  0.1010  0.0418 -0.3931
16661S        S23465   4.006   6.427  15.540  0.2195  0.4622 -0.0655
16662S        S23466   3.897   7.495  14.728  0.0091  0.2861  0.1980
16663S        S23467   0.183  11.566  30.657 -0.2680  0.0413  0.1360
16664S        S23468  11.117   7.052  11.824 -0.6350  0.0823  0.0863
16665S        S23469  11.870   1.167  12.212  0.0123 -0.4703 -0.4958
16666S        S23470   2.225   2.630  23.280 -0.6993 -0.0431 -0.3856
16667S        S23471   0.097   0.695  26.027  0.2642 -0.3808 -0.3718
16668S        S23472   1.890  10.018  23.896 -0.0102 -0.0516  0.0470
16669S        S23473   8.975   6.847   1.182 -0.3049 -0.3407  0.5100
16670S        S23474   3.283   2.966  14.977 -0.0411 -0.0660 -0.1659
16671S        S23475   1.035  11.535  20.850 -0.1881 -0.2030  0.3192
16672S        S23476  11.112   0.262  15.417  0.3105 -0.0264 -0.4132
16673S        S23477  11.178   5.127  28.159 -0.4969  0.3877 -0.3026
16674S        S23478   0.005  11.638  44.213  0.1250 -0.1494 -0.0713
16675S        S23479   0.954   8.154  26.517 -0.0264 -0.4061 -0.2969
16676S        S23480   5.435   6.192  11.920  0.5676 -0.2270 -0.2848
16677S        S23481   4.621   4.309  20.195  0.7121 -0.4773  0.0480
16678S        S23482   4.537   6.402  33.230 -0.2073  0.2331  0.1465
16679S        S23483   5.642   1.017  22.995  0.0512 -0.5589 -0.2014
16680S        S23484   3.920   4.066  13.491 -0.2541  0.0584 -0.2714
16681S        S23485   3.949   6.897  28.683  0.5764 -0.0075 -0.0151
16682S        S23486   8.621  12.311  12.435  0.0317 -0.1810  0.4353
16683S        S23487  10.944   8.228  23.794 -0.1618 -0.2124 -0.7501
16684S        S23488  11.417   7.828  23.061  0.9089  0.3896  0.4812
16685S        S23489   4.246   1.255  23.114 -0.1981  0.1514 -0.1733
16686S        S23490   9.027   1.609  29.185 -0.0609 -0.0680  0.4557
16687S        S23491   5.412   5.306  20.561  0.7471 -0.0108  0.8772
16688S        S23492   0.155   0.256   5.147  0.6896  0.1474  0.4857
16689S        S23493   5.276  12.221  15.668 -0.2291  0.1008  0.1298
16690S        S23494   7.728   4.609  24.908 -0.4801  0.5909 -0.1560
16691S        S23495   9.890   7.192  16.497  0.3650  0.4201  0.3199
16692S        S23496   5.444  10.411  25.669 -0.4039 -0.0246 -0.0464
16693S        S23497   9.447   6.206  32.189 -0.0188 -0.2598  0.4560
16694S        S23498   3.596   3.033  24.970  0.0580 -0.8133 -0.8966
16695S        S23499  11.074   5.910  28.811 -0.1103  0.4461 -0.4063
16696S        S23500   9.451   4.439  14.320 -0.1996 -0.7981  0.2580
16697S        S23501   5.543   3.559  23.553 -0.1883  0.1187  0.2244
16698S        S23502  11.518   9.720  19.955 -0.3966 -0.0012 -0.4156
16699S        S23503   5.181  10.397  21.616  0.2593 -0.4077 -0.1784
16700S        S23504   7.584   0.938  13.861 -0.1748  0.0571 -0.1725
16701S        S23505   0.338  11.358  18.009  0.3947  0.4014  0.0795
16702S        S23506   4.801   7.747  16.774 -0.5421 -0.0033  0.0336
16703S        S23507   4.290   3.312  36.840  0.1079  0.0694 -0.0521
16704S        S23508   4.358  10.936  19.761 -0.6047  0.0414  0.1244
16705S        S23509   2.922   9.043  14.803 -0.0689 -0.0234 -0.0082
16706S        S23510   0.716   1.921  15.958 -0.7844 -0.0888 -0.2510
16707S        S23511   5.540   5.260  19.337 -0.1893 -0.2452  0.0078
16708S        S23512   2.593  11.998  28.538  0.0421 -0.0160 -0.2057
16709S        S23513  10.692   1.381  17.449 -0.3014  0.0086 -0.1545
16710S        S23514   9.621   2.779  14.172  0.0548  0.1876  0.1489
16711S        S23515   2.279   9.466  26.968  0.4339  0.1020  0.6395
16712S        S23516   6.757   8.682  13.612 -0.0058  0.2465  0.2878
16713S        S23517   8.800   0.636  32.484  0.4073  0.5629 -0.0812
16714S        S23518   4.021  11.331  19.240  0.0898  0.1183 -0.2110
16715S        S23519  11.381   4.659  31.516  0.6049  0.2003  0.1308
16716S        S23520   7.306   9.360  17.742  0.3421 -0.2281 -0.4551
16717S        S23521   2.538  10.981  18.191 -0.3182 -0.1185 -0.3460
16718S        S23522   7.790   0.894  19.276  0.1060 -0.2797  0.0172
16719S        S23523  11.939   5.538  15.799  0.7816 -0.3648  0.0807
16720S        S23524   5.479  10.729  29.238  0.1335 -0.5865 -0.0630
16721S        S23525  12.222   9.101  13.004 -0.0713 -0.0299 -0.2633
16722S        S23526  10.350  10.257  18.540  0.0937 -0.2991  0.2716
16723S        S23527   7.850  10.388  12.216 -0.3370  0.1701  0.0934
16724S        S23528   9.875   2.784  28.742  0.3690  0.1761 -0.7047
16725S        S23529   1.817   3.828  20.352 -0.0278 -0.5311  0.0582
16726S        S23530   2.667  11.263  28.585 -0.0982 -0.3054  0.0350
16727S        S23531   8.858   3.395  14.636 -0.2135  0.0708  0.5746
16728S        S23532   9.891   9.343  16.398 -0.2071  0.1155  0.1153
16729S        S23533   9.953   3.685  18.219  0.3211 -0.1398 -0.2475
16730S        S23534   8.586   5.992  28.233 -0.5966 -0.2717 -0.0897
16731S        S23535   7.016   7.550  26.063  0.1641 -0.0681 -0.2999
16732S        S23536   9.942   0.064  30.503 -0.0262 -0.1986  0.0375
16733S        S23537   6.515   0.217  11.829 -0.0609 -0.0310 -0.0994
16734S        S23538   7.349   0.433  16.941  0.2574 -0.1595 -0.3371
16735S        S23539   6.979  11.947  22.247  0.0910 -0.0076 -0.5588
16736S        S23540  11.012   0.662  17.202  0.0070 -0.0583  0.0841
16737S        S23541   3.431  11.264  14.533  0.0390 -0.5990  0.0035
16738S        S23542   4.281   9.973  10.957  0.1297 -0.0689 -0.0790
16739S        S23543   8.529  11.659  16.398 -0.0934 -0.3413  0.0592
16740S        S23544  11.346   1.421  16.204 -0.0446 -0.1872  0.4754
16741S        S23545   2.996   2.050  20.015 -0.0940 -0.0057  0.1706
16742S        S23546   4.397   4.696  16.320 -0.1709 -0.1476 -0.0058
16743S        S23547   8.390  10.819  32.736 -0.2611  0.0229  0.3068
16744S        S23548   2.005   4.921  25.007 -0.0891 -0.2269 -0.4037
16745S        S23549   7.281   7.369  15.131  0.0298 -0.0622  0.6049
16746S        S23550  11.298  10.402  20.649 -0.4127 -0.1730 -0.6214
16747S        S23551   9.837   6.034  12.627  0.2622 -0.0669 -0.1966
16748S        S23552  10.014   9.611  14.322  0.7544 -0.0476 -0.4594
16749S        S23553   6.145  10.415  22.839  0.0419  0.0672 -0.8125
16750S        S23554   7.222   7.039  16.556 -0.2854  0.4774 -0.1189
16751S        S23555   6.720   7.112  25.276  1.0424 -0.1911  0.1776
16752S        S23556   8.063  10.316  15.520  0.0986  0.6865  0.3655
16753S        S23557   8.695  11.119  11.123 -0.1778  0.1616 -0.0444
16754S        S23558   0.913  11.495  33.697  0.4944  0.4104  0.3194
16755S        S23559   3.790   9.535  31.182  0.6408  0.1051 -0.1428
16756S        S23560   8.600   3.734  30.522  0.3960  0.2373  0.3223
16757S        S23561   6.915   0.611  23.608  0.1998  0.2339 -0.4936
16758S        S23562   8.138   6.056  28.441 -0.6548  0.2408 -0.0580
16759S        S23563  11.649   2.227  25.549  0.0445  0.2213  0.3466
16760S        S23564   4.955   0.010  25.967 -0.7695 -0.2417  0.3448
16761S        S23565   9.566   0.227  18.467  0.0902  0.2791 -0.1362
16762S        S23566   3.683   3.116  21.077  0.2336 -0.3120  0.0610
16763S        S23567   9.963  10.946  25.596  0.1718 -0.2562 -0.2534
16764S        S23568   6.950  10.789  24.160  0.6568 -0.2231  0.0816
16765S        S23569   1.509   8.135  25.721  0.3446 -0.3233 -0.0705
16766S        S23570   1.166   2.339  25.012  0.2835 -0.0890  0.0684
16767S        S23571   5.776   8.985  27.279 -0.1307 -0.2354  0.0491
16768S        S23572   6.503   6.924  18.328  0.2017  0.0174  0.5251
16769S        S23573   6.877   8.472  31.927 -0.4198  0.8003 -0.2157
16770S        S23574   9.582   6.590  21.036 -0.2807  0.1261  0.2787
16771S        S23575   6.277  11.811  14.948  0.4508 -0.3949 -0.1580
16772S        S23576   5.847   2.068  18.460  0.6379  0.3620 -0.0367
16773S        S23577   7.820   1.508  14.627 -0.1968 -0.5028  0.2934
16774S        S23578   0.937   9.650  17.158  0.1282 -0.2757  0.2844
16775S        S23579   1.237   7.787  26.600  0.3510 -0.1202  0.1629
16776S        S23580   6.341   5.161  15.602 -0.2126 -0.1675 -0.2656
16777S        S23581   7.878   2.837  24.312 -0.1790 -0.1206  0.3423
16778S        S23582   0.663   8.482  18.596  0.2224  0.0327 -0.0159
16779S        S23583   9.157   1.659  11.460  0.3953  0.0143  0.0273
16780S        S23584   0.443   3.615  20.363  0.5260  0.2601  0.3417
16781S        S23585   8.040   0.821  28.565 -0.3374  0.2307 -0.0299
16782S        S23586   8.558   6.114  23.693 -0.1339  0.2376  0.5018
16783S        S23587   5.322  11.153  18.906  0.3248 -0.2421 -0.0564
16784S        S23588   7.863   6.913  12.844  0.2828 -0.0301  0.0528
16785S        S23589   4.067   6.473  20.227  0.0314 -0.4461  0.0509
16786S        S23590   8.114   9.458  23.728 -0.0330 -0.5065  0.0570
16787S        S23591   0.795   7.760  20.936  0.3287  0.1376  0.1090
16788S        S23592   3.681   7.782  28.385  0.3139  0.3418  0.2367
16789S        S23593  11.646   9.805  17.706 -0.3619  0.3732  0.1150
16790S        S23594   5.473   5.042  18.280 -0.0369  0.5041 -0.0914
16791S        S23595   0.120   3.929  12.407  0.2681 -0.1441  0.1386
16792S        S23596   5.619   9.145  16.652  0.6543  0.3120 -0.2172
16793S        S23597   2.277   3.775  15.056  0.1235  0.2109  0.2568
16794S        S23598   4.141   3.915  29.634  0.0563  0.2613  0.1885
16795S        S23599  10.343   9.890  26.505  0.3490 -0.1302  0.2508
16796S        S23600   3.341   3.034  15.534  0.1803 -0.1789  0.1768
16797S        S23601   4.673   1.301  29.927  0.0031 -0.1098 -0.1819
16798S        S23602   5.945   0.792  19.878 -0.1154  0.2868 -0.5135
16799S        S23603  11.081   7.638  30.252  0.0283 -0.1659 -0.3201
16800S        S23604   0.242   2.542  24.093 -0.3265  0.0812  0.1189
16801S        S23605   9.145   0.040  23.079 -0.4865 -0.2134 -0.2710
16802S        S23606   3.051   4.693  26.876 -0.3455  0.0761 -0.2277
16803S        S23607   4.450   4.265  25.796 -0.3377  0.2624 -0.0765
16804S        S23608   0.532  11.410  23.074  0.1015 -0.1188  0.1217
16805S        S23609   4.907   0.454  11.415 -0.3817  0.0107 -0.7219
16806S        S23610   7.423   9.272  11.622 -0.2169  0.5116  0.2841
16807S        S23611  11.441   8.955  19.903 -0.2724 -0.1988  0.6547
16808S        S23612   6.043   5.687  17.763  0.0137  0.5500  0.0122
16809S        S23613   5.819   9.334  20.410 -0.2672  0.1528 -0.6993
16810S        S23614   7.055  11.398  29.554 -0.0261 -0.3878 -0.3437
16811S        S23615   7.875   1.176  16.603  0.1816 -0.2000  0.2200
16812S        S23616   8.599   2.323  25.238  0.6969  1.1071 -0.0424
16813S        S23617   8.533  11.185  19.983  0.0552 -0.2278 -0.2153
16814S        S23618   7.043   3.005  30.565  0.6004 -0.1646 -0.4115
16815S        S23619   1.395   2.772  18.722 -0.2395  0.4351 -0.0504
16816S        S23620   1.658   6.107  20.458 -0.0546  0.2068 -0.5565
16817S        S23621   7.588   5.905  31.151  0.3207 -0.0659  0.0283
16818S        S23622   5.530   9.463  17.214 -0.0675  0.1067  0.2822
16819S        S23623  12.256   7.936  12.029 -0.1658 -0.1944 -0.2530
16820S        S23624   4.175   1.972  25.572 -0.0632  0.7068  0.5131
16821S        S23625   1.553   7.958  15.784  0.0191  0.2328 -0.4474
16822S        S23626   6.323   6.696  20.425  0.2051 -0.2767  0.0607
16823S        S23627   5.524   4.940  13.316  0.2445 -0.2242 -0.1855
16824S        S23628   4.836   8.586  13.709 -0.1056  0.1330  0.6990
16825S        S23629   9.573  11.473  16.993 -0.4395  0.0779  0.2936
16826S        S23630  11.187   4.811  14.618  0.2044 -0.1449  0.2376
16827S        S23631   9.987   3.500  28.762  0.1378 -0.1025  0.4816
16828S        S23632  11.524   1.122  14.086  0.5062 -0.1821 -0.3647
16829S        S23633   6.921   9.942  14.914 -0.0019  0.3003  0.0361
16830S        S23634   3.522   8.633  16.592 -0.0727  0.0440 -0.2298
16831S        S23635   5.839   3.133  24.899 -0.1144  0.0450 -0.4604
16832S        S23636   9.208   0.865  20.874 -0.5322 -0.4594 -0.3004
16833S        S23637   7.719   9.256  14.889  0.1158 -0.4482  0.0828
16834S        S23638   2.357   9.608  22.749  0.4581  0.4146 -0.1747
16835S        S23639   1.048  11.505  23.289 -0.2846  0.1446  0.3224
16836S        S23640   6.920   0.311  30.765 -0.4453  0.1079 -0.2000
16837S        S23641   1.600   7.025  12.008  0.1119  0.3798  0.1123
16838S        S23642   8.498   5.916  15.451  0.4949 -0.0300  0.2964
16839S        S23643  11.078   6.360  12.981 -0.3641 -0.1918  0.2875
16840S        S23644   2.963  11.132  12.614 -0.3862 -0.0074 -0.5155
16841S        S23645   8.999   1.656  13.719 -0.3228 -0.4685  0.0353
16842S        S23646  10.785   6.176  19.649 -0.2817 -0.0211  0.2402
16843S        S23647   3.452   3.979  22.152 -0.0582 -0.2330  0.6851
16844S        S23648   2.457   0.950  28.639 -0.0688 -0.3398 -0.5275
16845S        S23649   4.451   2.773  11.740  0.3013  0.0127  0.4993
16846S        S23650   7.757   0.403  28.560 -0.4809 -0.2921 -0.5959
16847S        S23651   6.427  11.016  18.157 -0.1066  0.0124  0.0973
16848S        S23652  10.321   8.871  19.338  0.5077 -0.2824  0.1090
16849S        S23653  11.963  11.799  26.182  0.3827  0.4281  0.0003
16850S        S23654   4.382   3.110  21.979 -0.0358 -0.5852  0.0863
16851S        S23655   9.968   2.183  30.142  0.4960 -0.2731  0.0084
16852S        S23656   9.610   7.524  29.122 -0.3712 -0.4592  0.2443
16853S        S23657   2.080  11.562  16.929  0.4863 -0.2131 -0.3259
16854S        S23658   9.830   8.828  34.469 -0.4331  0.2847  0.0732
16855S        S23659   6.178   0.494  11.467  0.1010 -0.0681  0.0165
16856S        S23660   0.646   2.700  28.505 -0.6420  0.4878 -0.2030
16857S        S23661   1.110  11.366  33.084 -0.7547  0.2199  0.1800
16858S        S23662   8.734   4.118  13.031  0.0169 -0.3611 -0.2680
16859S        S23663   9.378   7.318  18.736 -0.4083  0.1310  0.3241
16860S        S23664  12.324   9.166  27.731 -0.0959 -0.1026 -0.0350
16861S        S23665  11.007   7.828  15.328 -0.3195  0.0514  0.3124
16862S        S23666   7.118   6.989  11.974  0.1560  0.1569  0.3481
16863S        S23667   6.631   7.346  18.546 -0.0825  0.5809 -0.2317
16864S        S23668   2.593   1.606  16.457 -0.5087  0.0012 -0.1504
16865S        S23669   3.462   6.326  28.667 -0.0048  0.6914  0.0316
16866S        S23670   6.731   4.178  24.853  0.0221  0.5904  0.1528
16867S        S23671   8.979   7.434  30.525  0.3115  0.1197 -0.1926
16868S        S23672   0.504   7.793  30.306  0.2150  0.2946  0.3374
16869S        S23673  10.934   9.045  14.529 -0.3468 -0.3966  0.2823
16870S        S23674  10.791   7.986  29.255  0.1125  0.1795 -0.3110
16871S        S23675   9.082   9.452  17.634 -0.0580  0.2322  0.1769
16872S        S23676   2.797   2.290  13.457  0.1233 -0.2683 -0.2498
16873S        S23677   2.568   1.656  21.273 -0.1063 -0.0042 -0.2660
16874S        S23678  11.255   9.159  29.236 -0.0498 -0.2312 -0.0605
16875S        S23679  10.159  11.662  34.148 -0.4094  0.1376 -0.1619
16876S        S23680   4.099   2.458  27.550  0.1292 -0.0953  0.1208
16877S        S23681   6.352   9.673  11.615 -0.1849 -0.0807 -0.5389
16878S        S23682  11.006   5.761  19.431 -0.1378 -0.3052  0.0617
16879S        S23683   0.977   4.753  22.076 -0.6336 -0.2820 -0.2811
16880S        S23684   4.913  12.098  30.273  0.4264 -0.3313  0.1647
16881S        S23685   4.793   0.507  29.235 -0.1236  0.5961  0.1572
16882S        S23686   4.187   5.229  18.870 -0.2390  0.1619 -0.2577
16883S        S23687   8.266   6.797  16.856 -0.2730  0.2084  0.2187
16884S        S23688   1.166   2.546  26.920 -0.3220  0.3370  0.1889
16885S        S23689   2.277   7.143  18.136  0.2556  0.3078  0.2510
16886S        S23690   1.809   7.715  19.101  0.2603 -0.2422 -0.0768
16887S        S23691   2.277  10.255  28.243 -0.1384  0.2955 -0.7116
16888S        S23692   2.197  10.659  29.374 -0.2807 -0.4131 -0.3438
16889S        S23693   7.904   9.961  28.646  0.7948 -0.0003  0.5466
16890S        S23694   7.462   5.207  31.048  0.3478 -0.0059 -0.3192
16891S        S23695  11.354   0.750  22.104  0.0679  0.1303 -0.2660
16892S        S23696   0.770   7.346  10.912 -0.1585 -0.0143  0.3846
16893S        S23697   2.730   0.269  24.037 -0.1202  0.5127  0.4899
16894S        S23698  10.797   3.698  19.447 -0.0045 -0.2088 -0.3125
16895S        S23699   5.491   0.408  20.030  0.1128  0.2138  0.0025
16896S        S23700   9.373   3.832  17.856  0.1859  0.2028  0.6296
16897S        S23701   7.334   0.214  31.212 -0.7141 -0.2431 -0.3663
16898S        S23702   3.786   0.061  25.887  0.0011 -0.2299 -0.5272
16899S        S23703   6.665   7.876  26.744  0.2623  0.4780  0.1236
16900S        S23704   3.192   4.580  19.953 -0.0592  0.2685 -0.0322
16901S        S23705   7.510   0.485  11.413  0.0206 -0.0241  0.0143
16902S        S23706   1.597  11.286  24.575  0.1923 -0.0014 -0.3824
16903S        S23707   9.587   3.944  28.027  0.1881 -0.4086 -0.5635
16904S        S23708   5.607   4.831  19.041  0.3507  0.2440  0.0931
16905S        S23709   8.228  10.559  17.390  0.0664 -0.0523 -0.1635
16906S        S23710   9.483   8.337  28.999  0.7231  0.3039  0.1505
16907S        S23711  12.310   6.668  25.831  0.1921 -0.2710 -0.1749
16908S        S23712   3.565   1.571  19.435  0.0966  0.0117 -0.1097
16909S        S23713  12.251   3.183  13.116 -0.2399  0.1447  0.1463
16910S        S23714   8.801   8.207  25.966  0.2068 -0.1455  0.0886
16911S        S23715   5.339   8.830  27.678 -0.0137  0.0222 -0.6565
16912S        S23716  11.460   5.391  20.042 -0.0803 -0.2288  0.0031
16913S        S23717   6.806   2.472  29.462  0.1083 -0.2559  0.6536
16914S        S23718   1.861   8.578  19.929 -0.0976  0.3137 -0.3103
16915S        S23719   2.827   9.323  14.255  0.0336  0.0609 -0.1236
16916S        S23720   7.741   6.971  15.761  0.0153  0.1462 -0.2777
16917S        S23721   9.863   4.306  16.581 -0.3821  0.2282 -0.2997
16918S        S23722   9.126  10.004  17.769  0.6253 -0.2071 -0.2897
16919S        S23723   1.707   2.481  14.368  0.1046 -0.2022  0.0776
16920S        S23724   7.172   9.841  35.012  0.2476 -0.1131  0.2227
16921S        S23725   0.852   1.330  19.458 -0.1453 -0.2167  0.3543
16922S        S23726   7.872   9.095  12.825 -0.4744 -0.3791 -0.1661
16923S        S23727   6.274  11.682  11.429  0.0627  0.3973  0.3433
16924S        S23728   3.427   1.063  21.678 -0.2737 -0.1752 -0.1144
16925S        S23729   9.195   2.955  26.682 -1.2304  0.0246 -0.0822
16926S        S23730  10.947   5.189  31.931  0.0491 -0.4432  0.1586
16927S        S23731   0.829   9.176  20.437  0.1562 -0.4989 -0.1236
16928S        S23732   2.812   4.698  15.902 -0.0247  0.2407 -0.1060
16929S        S23733   3.902  11.354  14.613  0.0160  0.0689 -0.1908
16930S        S23734   1.050  10.417  19.014 -0.1519  0.6111 -0.1136
16931S        S23735   7.739  10.309  16.633  0.1413  0.4366 -0.1657
16932S        S23736   7.988   6.226  16.740 -0.6819 -0.2349  0.2293
16933S        S23737   5.348   8.858  28.189  0.3043 -0.3652 -0.0722
16934S        S23738   8.251   0.063  15.091  0.1775 -0.3690  0.2146
16935S        S23739  11.283  11.401  14.937  0.0895 -0.1390 -0.2537
16936S        S23740   3.827   3.624  14.816  0.2480 -0.0815  0.0779
16937S        S23741  11.997   9.207  25.886  0.0157 -0.4137  0.5297
16938S        S23742   1.987   0.228  20.671 -0.1401  0.5246 -0.4230
16939S        S23743   5.845   9.848  29.750 -0.1214 -0.1441 -0.0160
16940S        S23744   1.640  10.603  22.501  0.6127  0.2447 -0.3740
16941S        S23745   9.218   5.014  16.235 -0.1544 -0.3435  0.0729
16942S        S23746   2.271   8.907  13.754  0.0230  0.0402 -0.2063
16943S        S23747   2.087   0.358  28.159 -0.3960 -0.4791  0.2981
16944S        S23748   4.542   7.046  33.427 -0.1766 -0.4846  0.0904
16945S        S23749   8.082   0.584  30.439  0.5544  0.2333 -0.5457
16946S        S23750   0.252   4.452  24.390  0.3768 -0.3969 -0.2163
16947S        S23751   5.232   6.105  16.028  0.4403  0.0661  0.1009
16948S        S23752   1.511   0.038  39.384  0.2599  0.2617  0.2540
16949S        S23753   7.988   5.687  24.657 -0.2779 -0.3493  0.4382
16950S        S23754   2.650  11.855  31.970  0.2367  0.2969  0.0894
16951S        S23755   0.990   8.690  19.854 -0.0203 -0.5336  0.2141
16952S        S23756   1.876   1.667  23.349  0.4897  0.1679  0.4502
16953S        S23757   3.230   2.950  17.291  0.0650  0.6888 -0.6751
16954S        S23758   6.780   7.585  21.267 -0.1650  0.2116  0.0405
16955S        S23759   7.541   8.694  20.989  0.1429  0.1543 -0.2923
16956S        S23760   2.242  11.910  19.967 -0.0506  0.3635  0.4611
16957S        S23761   5.165   2.631  26.252  0.1639  0.3854  0.2737
16958S        S23762   4.900   9.730  11.637 -0.4505 -0.0534  0.2283
16959S        S23763   0.964   1.808  25.446  0.2980  0.0867 -0.2452
16960S        S23764   6.902   1.451  16.856 -0.1564  0.0626 -0.2971
16961S        S23765   5.832   6.607  15.405  0.2337 -0.4651 -0.3435
16962S        S23766  10.017   2.537  11.322  0.5670 -0.4751  0.0616
16963S        S23767   8.670   3.719  22.587  0.1475  0.0407  0.3536
16964S        S23768   8.506   6.373  26.936 -0.3566  0.3845 -0.6205
16965S        S23769   8.331   1.121  31.583  0.2616 -0.2786 -0.0597
16966S        S23770  12.069   4.605  24.479 -0.0681  0.4887  0.6761
16967S        S23771   7.679   4.497  23.898 -0.2019 -0.0042 -0.0787
16968S        S23772   0.342   2.575  22.897 -0.0319 -0.2808  0.0680
16969S        S23773  10.335  10.242  13.061  0.3710  0.0649  0.1866
16970S        S23774  10.946  11.658  24.795  0.1301  0.2383  0.0034
16971S        S23775   4.130   3.419  15.285  0.1789  0.1203 -0.5743
16972S        S23776   0.161   7.219  25.290 -0.0315 -0.1056  0.3460
16973S        S23777   0.036   9.237  22.939  0.0598  0.1337  0.2232
16974S        S23778   7.328  10.842  16.684 -0.2296 -0.2201 -0.5007
16975S        S23779   8.190   7.792  15.289  0.3210  0.5002  0.1014
16976S        S23780   0.266  10.237  23.676  0.3467  0.2377 -0.0605
16977S        S23781   4.909   2.223  15.962  0.1101 -0.0428  0.2760
16978S        S23782   9.315   6.758  18.131 -0.0787 -0.2064  0.1858
16979S        S23783   8.779   8.331  15.157  0.4702  0.4543  0.2654
16980S        S23784   1.550   9.925  15.207 -0.2307  0.3228  0.1617
16981S        S23785   5.441   3.326  19.747  0.0948 -0.0726 -0.6065
16982S        S23786   9.686   9.612  28.383 -0.0249  0.2308 -0.0116
16983S        S23787   6.837   5.096  27.524 -0.0257  0.5132 -0.6191
16984S        S23788   1.936   1.290  14.838  0.1564  0.2145 -0.5176
16985S        S23789   8.665   5.156  12.085 -0.0495 -0.0487  0.1613
16986S        S23790  11.139   2.382  27.020  0.0694  0.3625 -0.5398
16987S        S23791   8.475   2.454  26.700 -0.0576  0.0897 -0.4567
16988S        S23792   6.533   9.487  15.613  0.3149 -0.3471 -0.2476
16989S        S23793   6.345   5.352  27.558  0.0213  0.3833  0.4174
16990S        S23794  10.023   6.950  14.242  0.0670  0.2606  0.1815
16991S        S23795   7.963   3.206  26.569  0.2186  0.2772 -0.1456
16992S        S23796   6.585   7.077  14.669 -0.1230 -0.2156  0.2191
16993S        S23797   4.816   2.276  20.480 -0.0865  0.3166  0.0099
16994S        S23798   4.148   9.712  30.545 -0.2147 -0.3223  0.5308
16995S        S23799  10.784   7.944  18.725  0.0768  0.1044 -0.3637
16996S        S23800   1.349  11.938  18.577 -0.4498 -0.0990  0.0560
16997S        S23801   7.508   6.862  26.882 -0.2003  0.1180  0.0357
16998S        S23802   6.709   4.668  33.140  0.0442 -0.2080  0.6120
16999S        S23803   7.521   1.709  12.286  0.4389 -0.3728 -0.5014
17000S        S23804   1.881  10.085  12.691  0.3176 -0.3934  0.0948
17001S        S23805   1.637  10.228  31.650 -0.2372 -0.2244 -0.0428
17002S        S23806   6.019   1.033  26.737 -0.1393 -0.0664 -0.2332
17003S        S23807   6.723  10.148  19.497 -0.0177 -0.3756  0.0477
17004S        S23808   9.240   6.114  16.396  0.6449  0.3966  0.2877
17005S        S23809   5.229   4.746  15.537 -0.2339 -0.3877  0.0161
17006S        S23810   7.210   4.768  24.868 -0.4280 -0.2456 -0.2642
17007S        S23811   3.535   7.924  18.660 -0.0156  0.2010 -0.2384
17008S        S23812  11.563   6.681  24.093 -0.0307 -0.1033 -0.3863
17009S        S23813   6.989  11.285  28.407  0.7820 -0.1138 -0.1948
17010S        S23814   2.089   8.162  14.374 -0.3784  0.1079 -0.2180
17011S        S23815   5.049   9.964  20.311 -0.3927 -0.2101  0.5956
17012S        S23816   8.196   6.009  13.217 -0.4913 -0.2732  0.1124
17013S        S23817   6.138   7.375  18.230 -0.0584  0.1695 -0.1761
17014S        S23818   3.984  11.397  29.011  0.3242 -0.3995  0.1194
17015S        S23819   9.091   0.552  30.654 -0.5106 -0.2399 -0.6553
17016S        S23820   2.879   4.964  18.001  0.0676  0.2831  0.3809
17017S        S23821   0.152   9.543  22.565 -0.0082  0.3433 -0.4051
17018S        S23822   5.585   9.251  22.006 -0.4191 -0.7350  0.2022
17019S        S23823   7.925   5.651  26.299  0.0430  0.1640  0.1727
17020S        S23824   1.413   2.759  13.458  0.3533 -0.5180  0.1214
17021S        S23825   7.289  10.525  26.930  0.4816  0.0803  0.1774
17022S        S23826   8.328   5.506  15.246  0.2432 -0.1340 -0.3160
17023S        S23827   5.626   0.948  23.638 -0.2519  0.1691  0.0972
17024S        S23828   0.219   7.205  30.342  0.0055 -0.7793  0.1863
17025S        S23829   6.258   0.047  27.470  0.3046 -0.6227 -0.1774
17026S        S23830   8.729   3.679  29.319  0.5049 -0.3297 -0.0203
17027S        S23831   1.867  10.077  29.715  0.3144  0.0491 -0.6031
17028S        S23832   4.316   2.407  12.155 -0.3684 -0.0962 -0.2600
17029S        S23833   1.990   5.527  16.652 -0.2280 -0.6869  0.4736
17030S        S23834  10.454   8.154  11.356  0.3043  0.0313 -0.0330
17031S        S23835  10.214   2.785  27.898  0.2304 -0.1735 -0.1179
17032S        S23836  10.208   2.783  11.767 -0.5356 -0.2361  0.1702
17033S        S23837   8.392   5.335  24.623 -0.4538 -0.3307 -0.3850
17034S        S23838   5.280   0.140  24.035  0.0894 -0.7567  0.0167
17035S        S23839   8.777   7.046  19.018 -0.0587 -0.2332 -0.2236
17036S        S23840   3.191   8.854  12.317 -0.0708 -0.2162  0.2853
17037S        S23841   2.403   3.336  29.876 -0.6678 -0.2702 -0.2793
17038S        S23842  10.888   4.771  28.527  0.1463  0.0688 -0.2725
17039S        S23843  10.382  11.320  12.207 -0.0151  0.1283  0.0796
17040S        S23844  12.083   6.225  21.148  0.3226  0.0909  0.3205
17041S        S23845   9.360   8.069  26.372 -0.0730  0.3287 -0.1174
17042S        S23846   4.018   2.564  19.659 -0.2820  0.0204 -0.1006
17043S        S23847   9.999   7.196  19.859  0.4451 -0.0292  0.0274
17044S        S23848   5.911  10.276  18.862 -0.2686 -0.3148 -0.0794
17045S        S23849   3.235  10.477  28.186 -0.1941  0.1199 -0.0407
17046S        S23850   7.565  10.269  26.450 -0.1118  0.3720 -0.6727
17047S        S23851   8.043  11.435  12.539  0.4763 -0.0942 -0.4205
17048S        S23852   1.757   7.923  27.305  0.7557 -0.4283 -0.1427
17049S        S23853  10.812   0.388  11.735 -0.4182 -0.3150 -0.0851
17050S        S23854  12.086   7.127  17.306 -0.1851  0.4913  0.1188
17051S        S23855   1.349   3.244  13.450 -0.1721  0.0703 -0.2993
17052S        S23856   1.076   4.263  25.526  0.2986  0.3261  0.5216
17053S        S23857   1.426   1.026  20.227 -0.2717 -0.0556  0.0831
17054S        S23858   2.360   5.295  25.342  0.1110  0.1059 -0.0652
17055S        S23859   1.427   4.821  18.763  0.2390 -0.1939  0.2884
17056S        S23860  10.720   3.511  22.106  0.5193 -0.2471  0.3131
17057S        S23861   2.816  10.050  18.639  0.0758  0.0048  0.0458
17058S        S23862   1.714   5.127  20.201  0.1049  0.1877  0.3470
17059S        S23863   9.020   7.053  19.644  0.1398 -0.5888 -0.0422
17060S        S23864   2.202   0.640  19.256 -0.2746 -0.3403  0.2134
17061S        S23865  10.547  12.161  17.988 -0.3105 -0.1140 -0.3474
17062S        S23866   2.025   2.370  26.807 -0.5237 -0.1054  1.0813
17063S        S23867   2.137   6.343  13.423 -0.1114 -0.3744 -0.3102
17064S        S23868   1.202   4.409  16.333  0.2952  0.3260 -0.0811
17065S        S23869   3.442  10.158  24.734 -0.4248 -0.3682 -0.3582
17066S        S23870   8.633   2.792  24.957 -0.5410 -0.0745  0.1747
17067S        S23871  12.118   5.344  12.763  0.2441 -0.3019 -0.3606
17068S        S23872   9.064   4.685  17.731 -0.3837 -0.2118 -0.4817
17069S        S23873   2.546   7.325  21.464 -0.3218 -0.2535  0.3481
17070S        S23874   3.902   0.220  12.006  0.4850 -0.2580 -0.2696
17071S        S23875   3.833   3.918  15.280  0.1228  0.4833 -0.0150
17072S        S23876   4.190   1.316  20.345 -0.1403 -0.2772  0.0558
17073S        S23877   0.618  11.084  11.740  0.0785  0.4381  0.0174
17074S        S23878  10.818  11.675  28.347 -0.4685  0.3002 -0.1235
17075S        S23879   7.002   0.076  16.764 -0.1056  0.0647 -0.0120
17076S        S23880  11.665   2.643  25.245 -0.1779  0.1301 -0.8024
17077S        S23881  11.922   7.803  22.091 -0.1671 -0.2489  0.4370
17078S        S23882   6.273   0.553  13.631  0.4221 -0.0715  0.7300
17079S        S23883   8.822   7.337  16.480 -0.3758  0.0675  0.0038
17080S        S23884   4.818   2.473  22.212 -0.2918  0.1599 -0.2884
17081S        S23885   8.572   3.560  16.791  0.0223 -0.2837  0.0378
17082S        S23886   4.756   8.570  20.385 -0.0610 -0.0896  0.0830
17083S        S23887   5.594   2.090  23.619 -0.0922  0.0621 -0.4903
17084S        S23888   0.222   5.839  13.202  0.3063 -0.0206  0.6680
17085S        S23889   4.246   0.334  12.298 -0.0624 -0.1543 -0.5499
17086S        S23890  11.400   6.301  23.132  0.5801 -0.0268  0.0030
17087S        S23891   5.808   6.337  24.783  0.3548  0.1708 -0.0429
17088S        S23892   1.340  10.060  15.785  0.3045 -0.3946  0.1957
17089S        S23893   9.384   9.103  25.557 -0.2913 -0.1955  0.1316
17090S        S23894   0.503   1.022  25.689  0.4713 -0.0439 -0.8143
17091S        S23895   7.067   5.128  25.879 -0.1930  0.3517  0.2131
17092S        S23896   1.445   1.159  20.663 -0.0148 -0.0835 -0.1689
17093S        S23897   7.876   2.097  14.399 -0.2137  0.3454 -0.4353
17094S        S23898  10.770   8.112  19.723  0.5494 -0.1748  0.1308
17095S        S23899   7.115  10.175  26.125 -0.4096 -0.4379 -0.5900
17096S        S23900   2.680   2.721  13.689 -0.3789 -0.1496  0.6896
17097S        S23901   3.234  10.273  20.299 -0.4887  0.3049  0.3316
17098S        S23902   4.790   4.854  19.429  0.1210 -0.2359  0.3625
17099S        S23903   2.048   4.729  16.694  0.2507 -0.4905  0.4753
17100S        S23904  11.977   5.175  20.129 -0.2759  0.3274 -0.4166
17101S        S23905   1.749   0.637  28.017 -0.1254  0.1846 -0.3733
17102S        S23906   8.370  11.991  30.936 -0.3973  0.3770 -0.3471
17103S        S23907   0.023   7.256  20.332 -0.4075 -0.0885 -0.2567
17104S        S23908   6.119   4.786  15.211 -0.1646 -0.1113  0.2341
17105S        S23909  12.227  11.370  24.535 -0.2124  0.4593  0.1582
17106S        S23910  10.647   6.599  13.338  0.1696  0.4865  0.3544
17107S        S23911   6.282   8.849  19.437 -0.0468 -0.5789 -0.3089
17108S        S23912   7.628  10.668  11.468 -0.1478  0.0271 -0.3312
17109S        S23913  11.649   2.208  29.278 -0.0485 -0.1254 -0.4054
17110S        S23914   0.166   8.537  29.188 -0.1667  0.5729 -0.3749
17111S        S23915   4.079   0.038  23.996  0.1544 -0.4937 -0.2648
17112S        S23916   5.450   9.604  32.222 -0.0894  0.0482 -0.0436
17113S        S23917   1.048   7.062  14.499  0.5374  0.0021  0.4318
17114S        S23918  12.174   2.247  23.679  0.1107  0.3579  0.2084
17115S        S23919   4.002   0.503  22.663 -0.3047  0.2747  0.3576
17116S        S23920   8.167   9.809  18.096 -0.4429 -0.2597  0.8330
17117S        S23921   1.870   9.668  11.684  0.4730  0.1307  0.0150
17118S        S23922  10.748   4.965  21.128 -0.4129  0.2222  0.5055
17119S        S23923   0.289  11.682  20.733 -0.4456 -0.5537 -0.1522
17120S        S23924   3.053   0.231  16.031 -0.3304  0.2582  0.0800
17121S        S23925   7.910   1.476  12.010  0.2383 -0.0697  0.0564
17122S        S23926  12.100   0.718  11.590 -0.2160  0.5390 -0.0994
17123S        S23927   9.314   7.082  24.945  0.0493  0.2168 -0.2402
17124S        S23928  10.767   6.329  28.733  0.3931  0.1025  0.0213
17125S        S23929   4.597   1.635  25.693 -0.3136 -0.1091 -0.4406
17126S        S23930  11.777  10.995  19.070 -0.0550  0.0597  0.2716
17127S        S23931   1.477   6.781  31.962  0.1554 -0.1549 -0.1258
17128S        S23932   7.826   7.358  23.723 -0.1026  0.5780  0.1043
17129S        S23933  10.599   2.611  26.045 -0.2898  0.5320 -0.0470
17130S        S23934   2.294   4.483  17.537 -0.2404 -0.0941  0.0929
17131S        S23935   9.998   2.225  24.906  0.3605  0.3213 -0.0058
17132S        S23936   9.802   8.027  25.978 -0.4612  0.0498 -0.4911
17133S        S23937   8.437   2.612  16.488  0.3864  0.0967 -0.0398
17134S        S23938   8.830  12.227  27.409  0.1971  0.2345 -0.1339
17135S        S23939   7.994   2.467  16.647 -0.1098 -0.3077  0.0336
17136S        S23940  10.696   9.180  15.631  0.2180 -0.3929 -0.0927
17137S        S23941   9.958   8.858  23.023  0.5352  0.2563 -0.0281
17138S        S23942   1.542   9.277  14.838  0.1313  0.4685  0.3445
17139S        S23943   9.014   0.518  15.276  0.2442 -0.2892  0.0410
17140S        S23944   2.530   8.391  27.118  0.0131  0.0665  0.2605
17141S        S23945   6.935   0.855  32.331  0.1710  0.2887 -0.2636
17142S        S23946   2.715   7.416   9.856  0.2949  0.3749  0.2866
17143S        S23947  11.428   1.204  22.233  0.2667  0.3643  0.6564
17144S        S23948   3.365   0.498  19.605  0.1904  0.2201  0.0050
17145S        S23949   9.842   5.641  31.697  0.3925 -0.0299  0.1941
17146S        S23950   4.395   0.437  23.702  0.1291 -0.0547  0.3610
17147S        S23951  11.279   4.370  24.644 -0.0358 -0.5013  0.0277
17148S        S23952   3.386   7.497  28.095 -0.1698  0.3555 -0.2111
17149S        S23953  11.426  11.785  28.479 -0.6512 -0.2571  0.1716
17150S        S23954   7.964   3.081  14.913 -0.1007 -0.4354 -0.4014
17151S        S23955   0.247   3.237  31.589 -0.3871 -0.7999  0.4574
17152S        S23956   1.893   4.808  17.487 -0.1323  0.2079 -0.1997
17153S        S23957  11.466   8.544  19.033 -0.6947 -0.0286  0.0679
17154S        S23958   1.559   9.476  24.334  0.3889  0.2038  0.0214
17155S        S23959   0.768   5.350  29.042  0.2356 -0.0435  0.1626
17156S        S23960  10.567  11.381  13.896  0.1388 -0.1384  0.6300
17157S        S23961  11.201   1.274  26.470 -0.0446 -0.6538  0.3459
17158S        S23962   9.229   3.160   4.646 -0.1981  0.1267  0.3068
17159S        S23963   6.312  11.833  32.149 -0.1645 -0.5530 -0.7029
17160S        S23964   6.323  10.919  22.923  0.3206  0.7280 -0.1015
17161S        S23965   7.201   5.090  24.410 -0.4579 -0.3269  0.2167
17162S        S23966   2.719   7.995  23.260  0.0501 -0.5049  0.0800
17163S        S23967   9.056   9.722  16.808  0.0384  0.0692 -0.0971
17164S        S23968   9.052  10.510  31.530 -0.0021 -0.1710 -0.1121
17165S        S23969   3.711   2.665  14.948  0.1403  0.2855 -0.2420
17166S        S23970   2.556   5.978  17.477  0.0569  0.2522  0.1490
17167S        S23971   6.335   0.608  15.787 -0.2906 -0.1984  0.2832
17168S        S23972   8.848   4.669  27.787  0.6664 -0.1101  0.3578
17169S        S23973   2.538  10.084  23.767  0.4253 -0.0919  0.0746
17170S        S23974   3.829   3.975  20.384  0.0548 -0.1037 -0.0812
17171S        S23975   4.055   8.753  28.367 -0.0482  0.5556  0.1601
17172S        S23976   8.789   3.062  13.117  0.2302 -0.4881  0.0391
17173S        S23977   3.229   7.219  29.215 -0.0145 -0.2337 -0.4952
17174S        S23978   2.136   7.836  23.239 -0.0187 -0.0942  0.0480
17175S        S23979  12.305   9.567  26.632  0.4068  0.1236 -0.1441
17176S        S23980  11.971   1.195  22.266  0.1272 -0.1042  0.6934
17177S        S23981   8.627   2.404  14.468 -0.3225 -0.3455  0.1826
17178S        S23982   9.474   2.316  30.181 -0.1149 -0.5595  0.4058
17179S        S23983   6.884   1.086  11.197 -0.0004 -0.2011  0.1112
17180S        S23984  11.889   9.735  18.176  0.2164  0.0110 -0.1851
17181S        S23985   9.071   5.211  13.895 -0.2505 -0.2104  0.4077
17182S        S23986   7.788   8.206  13.217 -0.4440  0.2842 -0.4262
17183S        S23987   5.128   7.370  21.818  0.1211 -0.3351  0.5315
17184S        S23988   1.890  12.332  13.677 -0.4381 -0.3911  0.1719
17185S        S23989  11.397   5.468  29.182  0.3971  0.2185 -0.2453
17186S        S23990   9.193   0.488  11.247 -0.0696 -0.2217 -0.3583
17187S        S23991   1.656   0.881  22.922 -0.1847 -0.0158 -0.0023
17188S        S23992   8.974  10.044  26.592  0.4804  0.5331  0.1967
17189S        S23993   2.238   8.261  30.867 -0.0144 -0.2738  0.3884
17190S        S23994   7.294   0.585  28.741  0.2478 -0.4684 -0.1438
17191S        S23995   8.295   0.867  24.642 -0.5579  0.2804 -0.4172
17192S        S23996   0.629   5.600  14.382 -0.1304 -0.3222  0.3055
17193S        S23997  10.650  10.237  12.168 -0.2338 -0.1127  0.3322
17194S        S23998   0.573   1.322  24.174  0.2318  0.1413  0.0161
17195S        S23999   3.205   1.792  12.827 -0.0561 -0.1682  0.2342
17196S        S24000  10.806   1.584  20.020  0.2144 -0.2692  0.1083
17197S        S24001  11.840  11.071  26.765 -0.3621 -0.0875  0.2093
17198S        S24002   5.917   0.929  18.319 -0.1332  0.4485 -0.2813
17199S        S24003   9.051   0.119  32.157 -0.1242  0.1784 -0.4149
17200S        S24004   7.275   2.618  15.437  0.2332  0.2151 -0.0513
17201S        S24005   9.371  10.152  41.605 -0.0455 -0.0814  0.0607
17202S        S24006   9.738   3.903  13.826 -0.1688  0.3182 -0.1524
17203S        S24007   3.322  10.738  16.955  0.4863 -0.1439  0.5918
17204S        S24008   8.276   5.296  20.513 -0.2962  0.0182  0.6361
17205S        S24009   5.843   0.469  14.986 -0.1374  0.1800 -0.4217
17206S        S24010   3.951   7.740  17.138  0.2196 -0.0512  0.1987
17207S        S24011   9.691   3.475  15.364 -0.3454  0.2661  0.0153
17208S        S24012   3.316   8.453  20.965  0.5252 -0.1498 -0.5741
17209S        S24013  11.025  11.410  23.820  0.3000 -0.2570  0.3304
17210S        S24014   8.577   8.966  12.419 -0.3600  0.1214 -0.1971
17211S        S24015   4.543  11.107  19.346  0.5417 -0.0397  0.0334
17212S        S24016  10.299   5.038  23.464 -0.3414  0.4626  0.2459
17213S        S24017  12.121   6.506  26.270  0.4058 -0.6100  0.1542
17214S        S24018   3.437   6.896  10.197 -0.6180  0.1406  0.2760
17215S        S24019   9.664  10.218  30.175  0.3636  0.0344  0.2959
17216S        S24020   7.640   4.683  15.039  0.2459  0.2909 -0.1237
17217S        S24021   7.244   1.714  20.756  0.4657 -0.0797  0.2624
17218S        S24022   9.427  10.330  19.050 -0.0817 -0.0541  0.3798
17219S        S24023   4.209  11.340  20.425 -0.2046 -0.4136  0.2878
17220S        S24024  10.902   0.030  20.570  0.4534 -0.4742  0.2838
17221S        S24025   2.884   4.053  31.441  0.2025 -1.0773  0.2640
17222S        S24026   7.937  11.580  12.066  0.0538  0.0565 -0.2321
17223S        S24027   2.380   1.346  17.369 -0.0469 -0.0599 -0.2685
17224S        S24028  11.634  10.816  18.625 -0.2812 -0.1671 -0.0130
17225S        S24029   8.615   2.236  15.506 -0.1774 -0.1604 -0.0428
17226S        S24030   9.284   1.164  17.540 -0.1377 -0.2234  0.0551
17227S        S24031   8.731   0.937  30.935  0.0344 -0.6147  0.1606
17228S        S24032  12.012  12.037  18.040  0.0598 -0.0169  0.1314
17229S        S24033   3.468   2.769  25.951 -0.1475  0.1470 -0.1100
17230S        S24034   8.538   4.696   3.411  0.0251  0.1827  0.3379
17231S        S24035   8.122  11.150  23.572 -0.0240 -0.1296  0.3901
17232S        S24036   7.634   3.301  31.239 -0.2276  0.1050 -0.1223
17233S        S24037   0.388   9.226  27.299 -0.1037 -0.0683 -0.2467
17234S        S24038  11.549   3.637  29.589  0.1724  0.0964 -0.5247
17235S        S24039   4.584   5.188  14.749  0.2341 -0.0065  0.4262
17236S        S24040   3.966   5.070  24.682 -0.1627  0.4298  0.3219
17237S        S24041  10.296   5.704  27.291 -0.2905 -0.0803  0.5248
17238S        S24042   3.851   3.056  26.102  0.6020  0.6586 -0.0097
17239S        S24043   2.481   6.974  15.218  0.1478 -0.0231 -0.5304
17240S        S24044   6.611   7.694  27.766 -0.8478 -0.4036 -0.3433
17241S        S24045   5.834   0.701  32.878 -0.2717  0.0965 -0.2716
17242S        S24046   9.620   2.614  14.631 -0.0840 -0.0969 -0.5274
17243S        S24047   5.935   2.553  26.404  0.2671  0.1275  1.0207
17244S        S24048   0.523   7.932  19.776  0.2163 -0.4241 -0.1625
17245S        S24049   0.004   9.436  24.421 -0.4464 -0.0483 -0.0527
17246S        S24050   6.645   0.238  11.257  0.3800  0.3131  0.2874
17247S        S24051   1.931   5.338  24.178  0.0817  0.5032  0.0539
17248S        S24052   7.173   6.478  23.515 -0.2830  0.0499 -0.0387
17249S        S24053   4.132   7.681  24.889 -0.3618  0.0459  0.6440
17250S        S24054   1.069  11.987  30.876 -0.0683 -0.4482 -0.0133
17251S        S24055   4.105   2.312  23.655 -0.7581 -0.3937 -0.2208
17252S        S24056   7.991  11.184  30.969  0.0087  0.1768 -0.2071
17253S        S24057  11.680   7.462  14.057  0.2955 -0.0368  0.1905
17254S        S24058   2.624   5.187  28.049 -0.3952 -0.0142 -0.5564
17255S        S24059   0.297   7.478  13.102  0.0894  0.3332 -0.0237
17256S        S24060   3.940  11.868  21.653 -0.2472  0.0143 -0.7358
17257S        S24061  10.073   7.700  22.932  0.7366  0.1473  0.1338
17258S        S24062   2.581   1.832  28.476 -0.1171  0.6618 -0.4776
17259S        S24063   9.767   4.468  13.856 -0.0549 -0.3882 -0.2540
17260S        S24064  12.093  10.931  29.548 -0.4679  0.0444 -0.5809
17261S        S24065   0.742  11.014  27.084 -0.5028  0.2006  0.3777
17262S        S24066   9.252   3.115  14.424 -0.0629 -0.1998 -0.1788
17263S        S24067   4.922   9.116  19.562 -0.5773 -0.2420 -0.0602
17264S        S24068   6.689   7.018  16.285  0.6580  0.1796  0.3848
17265S        S24069   5.661   1.006  27.612 -0.1688 -0.1900  0.3687
17266S        S24070   5.051  10.087  12.965  0.1163  0.3413 -0.1925
17267S        S24071   1.644   1.406  13.553 -0.0759  0.0069  0.1499
17268S        S24072   1.913   6.754  11.493  0.2199  0.0171 -0.0417
17269S        S24073  10.328   4.507  23.723 -0.1481 -0.2684 -0.0782
17270S        S24074   8.794   6.607  18.254 -0.0744  0.4204 -0.1475
17271S        S24075   3.980   1.144   6.355 -0.1073 -0.2626  0.2790
17272S        S24076  11.479   2.805  27.381 -0.1612 -0.0538  0.0043
17273S        S24077  12.007   3.104  23.429  0.2596  0.8223  0.0850
17274S        S24078  11.298   8.126  11.104 -0.4153 -0.1651 -0.1123
17275S        S24079   2.021   4.035  24.552  0.0058 -0.1494  0.4757
17276S        S24080   8.295   9.586  12.645 -0.0265  0.2789 -0.1335
17277S        S24081   9.460   9.343  22.351  0.6314 -0.0783 -0.3139
17278S        S24082   2.169   7.783  25.365  0.4972  0.1725 -0.2923
17279S        S24083   1.148  10.572  27.570  0.6751 -0.2724  0.3825
17280S        S24084  12.146   6.703  17.007  0.1193 -0.0261 -0.1615
17281S        S24085   7.057  12.055  24.660  0.0138 -0.1468 -0.4024
17282S        S24086   4.586   2.668  15.802 -0.3376  0.5041 -0.3996
17283S        S24087  10.527   4.084  12.282  0.2707 -0.2464 -0.3989
17284S        S24088   9.418   1.118  19.951  0.0201  0.1402 -0.3084
17285S        S24089   7.040   6.046  20.171  0.0893 -0.4712 -0.0539
17286S        S24090  10.529   1.679  21.235  0.1729 -0.7021 -0.0321
17287S        S24091   1.014   5.485  19.560 -0.1403 -0.3038  0.2178
17288S        S24092   6.928  12.113  17.720  0.0857 -0.2339 -0.0270
17289S        S24093   6.303   4.236  25.832 -0.4950  0.7678  0.3230
17290S        S24094   4.755  10.499  15.815  0.1151  0.3547  0.0247
17291S        S24095  10.259  10.327  19.755 -0.0405  0.4614  0.6377
17292S        S24096  11.073   3.141  23.536 -0.1599 -0.1440 -0.0823
17293S        S24097   2.920  10.868  22.892  0.2514 -0.2416  0.1900
17294S        S24098   2.034  10.803  15.223 -0.0027  0.4974 -0.0247
17295S        S24099  11.000   4.885  24.368  0.0530 -0.0632  0.1912
17296S        S24100   9.597   5.751  18.298  0.1728  0.1274 -0.2470
17297S        S24101  10.149   4.379  17.869 -0.4500  0.2424 -0.2603
17298S        S24102   7.049   0.750  12.129 -0.5829  0.6308  0.0777
17299S        S24103   6.538   4.696  12.262  0.3638 -0.2963 -0.3510
17300S        S24104   9.130   0.829  31.326  0.0008 -0.2294  0.0868
17301S        S24105   9.463   0.846  20.366 -0.1051  0.0463  0.1788
17302S        S24106   5.732   0.131  26.586 -0.0814  0.3005  0.2764
17303S        S24107   0.700   9.295  24.020  0.0046  0.0183 -0.3399
17304S        S24108   3.228  10.423  22.201  0.3123 -0.1620 -0.1217
17305S        S24109   7.155   8.438  19.862  0.0917 -0.0134 -0.0392
17306S        S24110  12.346   0.831  14.733 -0.4906 -0.4247  0.0005
17307S        S24111   8.582   4.795  25.990 -0.1167  0.1517 -0.2289
17308S        S24112   9.137   0.190  19.161 -0.3263 -0.6417 -0.0150
17309S        S24113  12.036   9.765  22.369 -0.2863  0.5477 -0.4942
17310S        S24114  11.736   7.513  16.922  0.5090  0.2875  0.0871
17311S        S24115   2.581   3.673  27.177  0.2683  0.4221 -0.0997
17312S        S24116   2.833  11.883  22.320 -0.1522  0.1941 -0.0525
17313S        S24117   5.217   0.497  10.968  0.0718  0.0012 -0.1212
17314S        S24118   2.787  11.789  25.258 -0.2615  0.4020 -0.0454
17315S        S24119   2.769   2.250  18.268  0.1146  0.1396  0.0617
17316S        S24120   3.811   1.835  14.797  0.0527  0.4147 -0.0008
17317S        S24121   4.868   9.739   6.783 -0.2477  0.0030  0.3193
17318S        S24122   3.078   7.682  24.692  0.0068 -0.0097  0.1535
17319S        S24123  11.844   4.282  25.380 -0.2067  0.1343 -0.6368
17320S        S24124  11.800  10.899  17.632  0.0386 -0.3129 -0.3375
17321S        S24125   1.202   0.058  24.901  0.6953  0.4619  0.0001
17322S        S24126   3.474   4.411  28.464  0.2492 -0.0631 -0.0398
17323S        S24127   7.525   3.152  16.236 -0.5215  0.1982 -0.1081
17324S        S24128  11.604   9.505  13.722 -0.5437  0.0266  0.3254
17325S        S24129   5.562   1.722  12.331 -0.2079 -0.4780  0.0377
17326S        S24130   0.124   8.000  13.183  0.1812 -0.2121 -0.4548
17327S        S24131   0.075   1.586  27.167 -0.3092  0.2551  0.0182
17328S        S24132   2.326   5.635  29.514 -0.3142 -0.5835  0.1114
17329S        S24133   2.985   0.792  28.908 -0.0173  0.1307  0.0873
17330S        S24134  12.045   2.646  19.156 -0.0275 -0.8318  0.1046
17331S        S24135   0.099   1.751  16.730 -0.1437  0.0766  0.1912
17332S        S24136   9.491   2.010  28.829 -0.0935 -0.4642 -0.1217
17333S        S24137  11.065   6.907  21.664 -0.0507  0.1617  0.1362
17334S        S24138   8.414   0.762  20.227  0.2078 -0.5953  0.2857
17335S        S24139   5.889   9.514  19.739  0.3054 -0.1399 -0.1912
17336S        S24140   8.440   5.140  18.089 -0.1425  0.3710  0.4067
17337S        S24141  12.266   8.028  30.770  0.3688  0.0917 -0.0918
17338S        S24142  11.568  12.245  26.974  0.0340 -0.8795  0.1763
17339S        S24143   9.538   4.824  28.825  0.1517 -0.6059  0.0344
17340S        S24144   1.917   7.734  11.998  0.0776  0.3344  0.1892
17341S        S24145   8.927   6.211  25.997 -0.0696 -0.0977 -0.8966
17342S        S24146   7.983   9.967  29.183 -0.2991  0.0137  0.1312
17343S        S24147   8.057   5.193  14.004 -0.2090 -0.2165 -0.1692
17344S        S24148   4.628  11.235  13.535 -0.4914 -0.1348  0.0831
17345S        S24149  10.758   3.587  12.260 -0.3569  0.2759  0.2676
17346S        S24150  11.124   4.822  11.341  0.3474  0.0514 -0.3032
17347S        S24151   4.848  11.050  17.680  0.2769  0.1370 -0.2324
17348S        S24152   6.153   4.042  47.541 -0.0210 -0.1388  0.2601
17349S        S24153   4.369   8.456  16.802  0.2673  0.1189  0.0412
17350S        S24154  11.860  11.656  28.719  0.4243 -0.1493  0.2294
17351S        S24155   9.351   6.375  21.875 -0.0712  0.3409 -0.1417
17352S        S24156   6.238  11.963  23.093  0.3290 -0.0455  0.0238
17353S        S24157   6.476   1.236  16.194 -0.2415  0.2718  0.3171
17354S        S24158   1.397   3.904  25.269 -0.2944  0.1377  0.1626
17355S        S24159   9.565  10.466  13.740  0.1158 -0.1312  0.2846
17356S        S24160   3.188   3.352  12.054  0.3483  0.2138  0.1601
17357S        S24161   9.580   9.578  17.675  0.5243 -0.1159 -0.1151
17358S        S24162   9.684  11.819  24.401  0.5086 -0.0112 -0.1641
17359S        S24163   6.102   1.906  20.514 -0.6630 -0.8440 -0.4582
17360S        S24164   4.854  11.256  18.693  0.2892 -0.0645  0.4139
17361S        S24165  10.473   7.116  17.311 -0.0337 -0.0314 -0.1446
17362S        S24166   5.538   9.329  17.959  0.0756  0.6360 -0.0443
17363S        S24167   3.806   6.841  29.288  0.4067  0.1298  0.1204
17364S        S24168   1.876   6.328  24.386  0.0186 -0.8465 -0.4435
17365S        S24169   1.985   3.077  22.768 -0.2732 -0.1413 -0.0487
17366S        S24170   8.923   6.525  19.727  0.4173  0.1276  0.2873
17367S        S24171   7.460   2.912  28.640  0.4084  0.4192 -0.1188
17368S        S24172   3.557   5.047  30.651 -0.2928 -0.4158 -0.0849
17369S        S24173  10.602   3.974  25.510  0.1139  0.4141 -0.7108
17370S        S24174   3.198  11.822  12.421  0.4145  0.0135 -0.3894
17371S        S24175   8.072   1.633  48.360 -0.0740  0.0415  0.4200
17372S        S24176  10.045   1.161  19.012  0.0608  0.5913  0.3987
17373S        S24177   8.496   9.965  12.321  0.0768  0.4591 -0.2806
17374S        S24178   4.215   2.070  19.805 -0.7230  0.0969  0.7348
17375S        S24179   3.211   5.266  20.691 -0.3278  0.3917 -0.0051
17376S        S24180   5.393   8.845  14.165 -0.5728 -0.0760 -0.4236
17377S        S24181  10.609   6.821  24.509 -0.3822  0.0909 -0.1573
17378S        S24182   2.864   2.729  18.014 -0.0406  0.0634 -0.0476
17379S        S24183   9.692   2.395  23.872  0.1213  0.4635 -0.0152
17380S        S24184  11.481   6.088  12.740 -0.3815 -0.0297 -0.3500
17381S        S24185  10.802   8.044  36.487 -0.1235  0.0066  0.5443
17382S        S24186  10.463   7.133  21.501  0.0437 -0.1025 -0.2419
17383S        S24187   1.634   5.311  12.838  0.2394  0.1040  0.0002
17384S        S24188   2.187   0.084  29.016 -0.3653  0.0588 -0.2257
17385S        S24189  10.442   5.494  29.884  0.0226 -0.6279  0.2660
17386S        S24190   6.766   1.197  11.913 -0.2049  0.0628 -0.3498
17387S        S24191  10.816   2.006  15.528 -0.4059 -0.7011 -0.0372
17388S        S24192   3.164   0.917  15.804 -0.1221  0.1190  0.4090
17389S        S24193   4.607   1.163  17.237 -0.2584 -0.2782  0.0897
17390S        S24194   3.764   0.314  12.497  0.3242  0.0992  0.0565
17391S        S24195   7.386   9.403  15.314 -0.1897 -0.6050  0.2285
17392S        S24196  11.538   7.745  15.096 -0.2177  0.0639  0.1799
17393S        S24197   4.567  10.034  20.621 -0.3053 -0.1506  0.3122
17394S        S24198   1.826   7.267  13.346 -0.0573  0.1092  0.0161
17395S        S24199   1.133  11.680  23.727  0.0228 -0.3036  0.0046
17396S        S24200   4.695   8.758   5.440 -0.1501 -0.1278  0.2951
17397S        S24201  10.723   7.991  34.529  0.6229 -0.0897 -0.1669
17398S        S24202   7.756   0.795  21.961  0.0963 -0.1526 -0.2969
17399S        S24203  11.948   5.941  36.689  0.1023 -0.5806 -0.0955
17400S        S24204   4.669   3.640  18.668  0.1713  0.0107 -0.0234
17401S        S24205   9.852  12.290  31.322 -0.2554 -0.4015  0.4106
17402S        S24206   7.049   1.403  26.509 -0.3751  0.0709  0.0997
17403S        S24207   7.389   0.656  16.083 -0.2589  0.4443 -0.0725
17404S        S24208   7.501   3.969  29.741 -0.1103  0.0415  0.0423
17405S        S24209   8.747   0.447  11.689 -0.0458 -0.0718 -0.1621
17406S        S24210   4.158  10.817  31.202  0.5212  0.2714  0.2836
17407S        S24211   6.382   3.605  33.091  0.1766 -0.1179 -0.1009
17408S        S24212  10.982   1.596  19.102  0.0003 -0.6305  0.0049
17409S        S24213   1.232   5.362  20.427  0.2573  0.1171  0.1500
17410S        S24214  11.288  11.094  26.734 -0.5369  0.0731 -0.1768
17411S        S24215  11.232   5.990  25.451  0.3678 -0.3566  0.2010
17412S        S24216   5.708   1.707  18.796 -0.1196 -0.1704  0.3639
17413S        S24217   9.300   7.135  16.377 -0.1901  0.5467  0.2579
17414S        S24218   1.780   2.359   4.271 -0.2407 -0.1263  0.1527
17415S        S24219   8.112   2.681  12.538 -0.2344  0.4061  0.1800
17416S        S24220   9.474   7.738  22.084  0.1380 -0.0523 -0.4198
17417S        S24221   9.798   9.836  26.521 -0.0353 -0.2917  0.0350
17418S        S24222   1.332  10.430  19.470  0.1365  0.0314  0.4915
17419S        S24223   4.950  10.095  21.289  0.0208 -0.0395  0.0674
17420S        S24224   6.917  10.088  29.740 -0.1379  0.4216 -0.1044
17421S        S24225   6.757  11.484  21.018 -0.2885 -0.1744 -0.0717
17422S        S24226  10.768   2.283  24.261 -0.1513 -0.2306  0.1160
17423S        S24227  10.947  10.752  17.135  0.4987 -0.7247  0.0042
17424S        S24228   4.688   1.236  19.217  0.0753  0.0866  0.2593
17425S        S24229   7.622   2.224  15.375 -0.0923 -0.7611  0.1274
17426S        S24230   4.545   9.948  17.616 -0.1372  0.3953 -0.0273
17427S        S24231  10.199   8.003  25.015  0.5516  0.7233 -0.3328
17428S        S24232   3.908  11.927  27.176  0.2403 -0.4954 -0.4579
17429S        S24233   6.696  10.484  15.746 -0.5318  0.3185  0.2041
17430S        S24234  10.854   8.251  18.329 -0.3006  0.1241 -0.2542
17431S        S24235   1.111   2.094  49.078  0.0517  0.2324  0.2267
17432S        S24236   6.763   6.096  12.756 -0.0877  0.1098  0.2897
17433S        S24237   6.476   9.863  27.831 -0.0247 -0.2831  0.9129
17434S        S24238   4.601   1.870  12.830  0.0791  0.2494 -0.1349
17435S        S24239   3.751   3.125  13.242 -0.0248  0.2317 -0.1227
17436S        S24240   7.483   6.964  33.310  0.4629  0.5253  0.3357
17437S        S24241  11.037   7.271  29.361  0.1653  0.1427  0.0243
17438S        S24242   4.863   0.419  18.529 -0.3369  0.3948 -0.2033
17439S        S24243   4.041   5.817  14.231 -0.3580 -0.2620  0.3433
17440S        S24244   0.060   3.781  17.258  0.0372  0.1552  0.3355
17441S        S24245   2.241   0.822  24.648 -0.6411  0.3802  0.1789
17442S        S24246   5.588   4.532  30.590  0.1628 -0.4848  0.5155
17443S        S24247   9.309  10.883  27.612 -0.5889  0.2843  0.0492
17444S        S24248   5.680   0.501  28.402 -0.1762  0.3200 -0.5736
17445S        S24249   7.469   0.483  25.885  0.2738  0.1364  0.1185
17446S        S24250   3.282   2.233  13.677  0.1109  0.1996  0.1978
17447S        S24251   6.795   4.724  30.831  0.0989  0.2240  0.6351
17448S        S24252   7.469   7.762  17.968  0.2937  0.1728 -0.1422
17449S        S24253  10.135   4.088  21.675 -0.2116 -0.1144 -0.4881
17450S        S24254   6.859   2.862  25.131  0.3451 -0.4151  0.2051
17451S        S24255   1.865   9.226  19.742  0.3031 -0.0508  0.1766
17452S        S24256   8.752   4.643  15.515 -0.2772  0.0480  0.1818
17453S        S24257   5.378  11.583  28.611  0.5585 -0.0578  0.0737
17454S        S24258   0.770   1.882  28.295  0.6035  0.2780  0.3706
17455S        S24259   0.004  11.363  23.668  0.2219 -0.3800 -0.0845
17456S        S24260  11.445   8.389  17.030  0.2910  0.7069  0.1671
17457S        S24261   9.683   3.524  12.366  0.0146 -0.0735 -0.3574
17458S        S24262  10.657   6.388  30.051 -0.2385 -0.4314 -0.8643
17459S        S24263   7.836   6.890  22.689 -0.1404  0.5041  0.0066
17460S        S24264   6.491  11.138  28.574  0.7445 -0.9215  0.3370
17461S        S24265  11.996   4.067  12.592  0.0902  0.1921 -0.1046
17462S        S24266  10.508   3.073  40.418  0.6268 -0.0924 -0.0173
17463S        S24267   8.481   4.231  15.493  0.7218  0.1021 -0.4937
17464S        S24268   1.199   6.710  14.217 -0.0129  0.0686 -0.3557
17465S        S24269   4.964   5.221  15.647  0.2626  0.1032 -0.2670
17466S        S24270   7.814   5.144  11.578 -0.3250  0.3048 -0.0963
17467S        S24271   7.851   3.366  29.705  0.3000  0.5441  0.4414
17468S        S24272   5.383  10.275  20.104  0.5322 -0.0518  0.0397
17469S        S24273   8.440  10.617  15.754  0.7481 -0.4435  0.0866
17470S        S24274   6.159   1.865  21.716  0.5270 -0.2255  0.5384
17471S        S24275   5.138   9.111  18.494  0.1999 -0.1653 -0.2087
17472S        S24276   9.027   5.032  26.976  0.2493  0.2831 -0.1814
17473S        S24277   0.408  10.300  25.633  0.2670  0.2135  0.0994
17474S        S24278   8.680   5.513  30.815  0.4439  0.0678  0.3987
17475S        S24279   6.736   2.019  14.917  0.4613  0.1768 -0.4838
17476S        S24280   8.213   8.737  30.236 -0.6371  0.7319  0.1086
17477S        S24281   4.600   7.837  24.627  0.1391  0.0051  0.2245
17478S        S24282   8.844   5.664  27.265  0.0022  0.1740 -0.6387
17479S        S24283   2.763   9.490  18.645 -0.3853  0.0354  0.2846
17480S        S24284   9.075   7.594  28.960  0.1342 -0.1185 -0.3839
17481S        S24285   0.295   2.725  29.498  0.4655 -0.0978  0.3389
17482S        S24286   4.246  11.307  22.241  0.2666 -0.0752 -0.4456
17483S        S24287   0.408   7.425  27.002  0.4235  0.1270 -0.2119
17484S        S24288   4.449   0.851  28.809  0.2062  0.2486 -0.2137
17485S        S24289   6.693  12.310  20.955  0.0725 -0.0574 -0.0607
17486S        S24290   5.733   4.825  22.817  0.2950 -0.2030 -0.2312
17487S        S24291   7.600   2.613  16.273 -0.0312  0.2291  0.2819
17488S        S24292   5.192   4.713  22.973 -0.0020  0.5917 -0.1388
17489S        S24293   5.117   4.101  19.351  0.0579  0.1234  0.3496
17490S        S24294   0.831   2.177  24.591 -0.1047  0.1846  0.0294
17491S        S24295   2.818   2.275  16.186 -0.3223  0.8083  0.3086
17492S        S24296   8.733   8.663  12.896  0.2880  0.0732  0.3680
17493S        S24297   4.072  11.278  22.823  0.1798  0.0787 -0.2078
17494S        S24298   9.271   3.755  22.635  0.0386 -0.3180  0.0779
17495S        S24299   6.056   4.405  11.513 -0.0053  0.2651  0.5775
17496S        S24300   8.987   5.312  13.394 -0.0599 -0.1196 -0.1221
17497S        S24301   3.397   3.321  14.103  0.0599 -0.2242 -0.3247
17498S        S24302   0.448   8.642  27.187  0.1450 -0.4184 -0.1395
17499S        S24303   2.740   8.171  17.117 -0.1425 -0.0350  0.1954
17500S        S24304   8.341   5.450  22.225 -0.1171 -0.1619 -0.6517
17501S        S24305   8.760   9.132  13.896 -0.0673 -0.0828  0.1997
17502S        S24306  10.628   1.344  25.841 -0.0587 -0.0661 -0.1218
17503S        S24307   4.644  10.883  15.380 -0.1927 -0.4028  0.2403
17504S        S24308   9.516  10.566  20.555 -0.4334  0.3218  0.3707
17505S        S24309  10.742   8.913  18.404 -0.0273 -0.0481  0.2254
17506S        S24310   9.133  10.274  24.397 -0.1488  0.1291  0.6367
17507S        S24311   9.917  11.843  17.071  0.6278 -0.4421 -0.3963
17508S        S24312   8.327   6.904  15.077  0.6189 -0.2236 -0.1612
17509S        S24313  10.070   1.681  18.725 -0.4731 -0.0162 -0.6185
17510S        S24314   2.310   1.183  16.658  0.3693 -0.3229  0.0524
17511S        S24315   3.721   5.652  29.013  0.1174  0.6209  0.2819
17512S        S24316  11.299   7.072  16.316 -0.0304  0.2173 -0.0616
17513S        S24317   5.707  10.441  27.893  0.0441  0.1920 -0.1509
17514S        S24318   4.500  12.036  20.928  0.1062 -0.2328  0.4296
17515S        S24319   0.778  12.282  13.455  0.0044 -0.2745  0.2396
17516S        S24320   8.227   7.685  17.072  0.2904 -0.0744 -0.1085
17517S        S24321   2.200   1.628  16.975 -0.0425  0.1049 -0.1125
17518S        S24322   9.019   2.969  15.771  0.4478 -0.3621  0.0764
17519S        S24323  11.011   1.434  13.332  0.2903 -0.0019 -0.0705
17520S        S24324  10.968   8.731  17.389 -0.0598  0.0255 -0.3037
17521S        S24325  11.177   2.538  17.402  0.1445  0.4843  0.7082
17522S        S24326   0.958  10.172  11.504  0.5788  0.1057  0.0252
17523S        S24327   4.256   4.180  15.774 -0.4104 -0.1231 -0.0109
17524S        S24328   8.044   7.171  18.455  0.1505 -0.3960 -0.0862
17525S        S24329   3.938   9.978  21.985  0.1462  0.1183 -0.6425
17526S        S24330   8.939   9.005  18.330 -0.2609  0.2235 -0.1639
17527S        S24331   5.286   7.721  23.991 -0.4650 -0.1699  0.0708
17528S        S24332   6.852   4.189  16.775 -0.2872 -0.0960  0.4637
17529S        S24333  11.055   9.709  18.695  0.0240  0.0313  0.2897
17530S        S24334   2.191   0.232  16.795 -0.1316 -0.1603  0.0318
17531S        S24335  11.072   9.426  16.470  0.0180 -0.2125  0.0837
17532S        S24336   5.339   7.208  23.714  0.3467  0.0046  0.0369
17533S        S24337  10.414   1.753  12.332 -0.3273  0.3772 -0.0406
17534S        S24338   5.071   0.110  29.210 -0.5343 -0.0552  0.1609
17535S        S24339   1.037   2.027  29.425  0.2111 -0.1053  0.2058
17536S        S24340   1.017   7.518  15.100  0.2832 -0.0743  0.2809
17537S        S24341   2.975   9.849  14.309 -0.5068  0.1172 -0.0336
17538S        S24342   8.315   6.852  13.040 -0.1523 -0.3381 -0.0957
17539S        S24343   7.136   1.072  27.573  0.3291  0.1327 -0.7445
17540S        S24344   2.269   1.627  26.063 -0.4317 -0.3554  0.1909
17541S        S24345  10.379   2.845  21.844 -0.3956 -0.2729 -0.0561
17542S        S24346   8.888   0.759  12.728 -0.4517 -0.3538 -0.2220
17543S        S24347  12.066   0.198  21.649 -0.2291  0.4859  0.2646
17544S        S24348   8.156   8.971  38.355  0.2058 -0.4686 -0.2577
17545S        S24349   1.249  11.670  11.584 -0.4320 -0.3350  0.2351
17546S        S24350   7.095   7.744  19.250  0.0751  0.0425 -0.0777
17547S        S24351  12.343  10.837  29.104  0.1312  0.0746 -0.0743
17548S        S24352   8.004   3.460  24.698  0.3007  0.2714 -0.2492
17549S        S24353   7.445   3.474  31.804 -0.1090  0.1248  0.3495
17550S        S24354   5.561  12.025  23.266 -0.3629  0.0318 -0.1575
17551S        S24355   6.528   9.237  21.728  0.3492 -0.1958  0.0554
17552S        S24356   8.092   8.574  22.247  0.3491  0.6484 -0.5032
17553S        S24357   6.768   8.302  15.748  0.4435 -0.3197  0.2086
17554S        S24358   0.926   7.328  29.699  0.1510  0.0616 -0.2928
17555S        S24359   9.826  10.966  19.133 -0.4991  0.4328 -0.4918
17556S        S24360   2.658   2.096  21.622 -0.2623  0.3903 -0.0477
17557S        S24361   7.995   8.141  19.629 -0.1085 -0.0366  0.1600
17558S        S24362   1.429   2.260  28.947  0.3633 -0.1815 -0.2648
17559S        S24363   1.881  11.075  24.186 -0.2473  0.2957  0.0350
17560S        S24364   9.131   8.523  26.298  0.2302 -0.1781  0.1458
17561S        S24365   4.701   3.650  31.373 -0.0837 -0.0440  0.2493
17562S        S24366  11.737  11.532  18.979 -0.2391  0.4070 -0.2233
17563S        S24367   5.893  10.107  17.775 -0.2374 -0.2159 -0.4555
17564S        S24368   7.401  11.202  21.650 -0.3385 -0.0563 -0.0569
17565S        S24369  11.849   7.102  13.646  0.2542  0.4941 -0.1492
17566S        S24370   3.503   7.326  20.587  0.1561  0.2467 -0.1008
17567S        S24371  12.275   5.469  26.522 -0.0231 -0.2677 -0.4705
17568S        S24372   9.668   6.518  23.369 -0.4708  0.1570 -0.5282
17569S        S24373   4.457   1.407  20.794 -0.2373  0.3668 -0.5002
17570S        S24374   8.260   6.444  16.331  0.0301  0.0180 -0.2297
17571S        S24375   7.138  10.896  11.742 -0.0487 -0.3888  0.0789
17572S        S24376   8.621   2.765  26.068 -0.2100 -0.3352  0.1854
17573S        S24377  10.396   1.197  15.301  0.2500  0.7601 -0.1495
17574S        S24378   5.711   9.537  12.252  0.0798  0.0198  0.0270
17575S        S24379  10.293   6.324  14.841 -0.1423  0.6249 -0.0340
17576S        S24380   2.736   0.348  20.143 -0.3785  0.4224 -0.4068
17577S        S24381   5.306   9.945  26.088  0.2795 -0.2774  0.1922
17578S        S24382   0.029   8.876  30.565 -0.6031  0.2657 -0.0720
17579S        S24383   1.136  11.973  29.232  0.8229 -0.0736 -0.1483
17580S        S24384   6.251  11.693  30.814  0.5486 -0.2817  0.4306
17581S        S24385   9.819   6.706  28.930  0.1058  0.4081 -0.2785
17582S        S24386  11.737   3.716  16.817  0.2985  0.3064  0.1324
17583S        S24387   9.266   2.671  11.881 -0.7403 -0.2714  0.1773
17584S        S24388   5.910  10.712  15.739  0.1218 -0.0489  0.4758
17585S        S24389   5.367   2.573  14.267 -0.1931  0.4087 -0.2498
17586S        S24390   8.454   9.084  11.844  0.0343  0.0376  0.3605
17587S        S24391  11.794   9.722  28.657 -0.2969 -0.0499  0.2224
17588S        S24392   8.014   6.234  15.517  0.3482 -0.5184 -0.3053
17589S        S24393   1.315   4.834  27.353 -0.4578 -0.0953  0.0244
17590S        S24394   0.389   3.359  28.312  0.0872 -0.0633 -0.7429
17591S        S24395   3.375   3.694  27.374 -0.3691 -0.0377  0.5470
17592S        S24396  11.561   7.472  15.995 -0.2720  0.3623  0.0666
17593S        S24397   0.463   3.168  22.942 -0.1281  0.1228  0.3065
17594S        S24398   9.907   9.243  17.947  0.2411 -0.1082 -0.2617
17595S        S24399   1.186   1.547  28.159 -0.5805  0.3885  0.1606
17596S        S24400   7.626   5.365  14.416  0.1083  0.1564  0.2479
17597S        S24401   7.265   5.727  31.602  0.4855  0.3074  0.1907
17598S        S24402   6.473  11.406  29.600  0.7720 -0.3231  0.0552
17599S        S24403   2.245   0.738  13.298  0.3629  0.2260 -0.2127
17600S        S24404  11.952  10.592  26.653  0.1432 -0.0297 -0.0745
17601S        S24405   2.792   6.215  14.297 -0.1403 -0.3509  0.2173
17602S        S24406   2.931   7.764  23.657 -0.0877 -0.4130  0.2189
17603S        S24407  11.306   4.516  13.016 -0.4818  0.2032  0.2422
17604S        S24408   7.051   6.995  15.948 -0.2441  0.0702 -0.1078
17605S        S24409  10.212   2.183  30.670  0.2873  0.2436  0.2567
17606S        S24410   3.253  12.244  23.357 -0.0125  0.4191  0.4897
17607S        S24411   6.178  12.055  14.154 -0.2249  0.0001 -0.2018
17608S        S24412   4.633   3.015  14.806  0.1049  0.0195 -0.3287
17609S        S24413   0.822   2.482  25.416  0.0034  0.3170  0.5762
17610S        S24414  10.234   9.732  16.178 -0.1696  0.4160 -0.0355
17611S        S24415   1.676   5.165  18.536 -0.0988 -0.2729 -0.0146
17612S        S24416   7.947  10.208  31.132  0.0969  0.3123  0.1566
17613S        S24417   9.906  10.534  26.318  0.4371 -0.4684 -0.5360
17614S        S24418   6.015   1.215  19.439  0.2147 -0.0962 -0.5994
17615S        S24419  11.426   5.950  19.060 -0.1049  0.4015  0.0406
17616S        S24420   0.445   8.464  19.825 -0.5524  0.0346 -0.3713
17617S        S24421   8.987   4.365  15.087 -0.6879 -0.1717 -0.1258
17618S        S24422   2.420  11.428  11.737 -0.2640 -0.0724  0.3400
17619S        S24423   9.907   8.527  13.742  0.5309  0.2560  0.3336
17620S        S24424   4.046   6.849  16.250  0.0568  0.2398  0.1205
17621S        S24425   3.703   2.322  13.946 -0.1207 -0.2989  0.1152
17622S        S24426   4.230   0.073  16.335 -0.1672 -0.0604 -0.1573
17623S        S24427   2.012   9.645  18.274 -0.3768 -0.0292 -0.2774
17624S        S24428   9.495   4.540  21.923 -0.3617  0.3080  0.4239
17625S        S24429   4.420  11.036   9.208  0.0183 -0.1793 -0.1044
17626S        S24430   4.156   8.355  21.547 -0.9037  0.1008 -0.0571
17627S        S24431   0.267   5.998  11.771  0.2283 -0.2483  0.1027
17628S        S24432   5.790  10.434  26.485  0.3570  0.0988 -0.0818
17629S        S24433   9.468   4.907  20.717  0.0284 -0.1170  0.2289
17630S        S24434  10.688   2.169  20.442  0.0015  0.2859  0.0892
17631S        S24435   3.795   1.525  17.495  0.3170  0.1820  0.0306
17632S        S24436   1.605   3.442  27.880  0.0494  0.1857  0.7180
17633S        S24437   4.861   1.592  26.223  0.1367 -0.5151  0.5142
17634S        S24438   1.820   9.291  13.954  0.1006  0.1667  0.0992
17635S        S24439  11.714  11.516  32.102 -0.6206  0.0686  0.2707
17636S        S24440   3.190   1.419  23.297  0.4135 -0.0226  0.7896
17637S        S24441   8.838   9.277  19.787 -0.2295 -0.1699  0.3769
17638S        S24442   3.350   9.611  24.464 -0.1643  0.2021 -0.6939
17639S        S24443  11.041   9.826  29.447  0.0215 -0.1415  0.2192
17640S        S24444   4.556   7.817  19.495 -0.1358  0.1508  0.4941
17641S        S24445  10.828   3.431  15.803  0.1443  0.3804  0.5188
17642S        S24446   9.966   7.723  29.487 -0.0825  0.2312  0.1153
17643S        S24447  10.268   5.358  14.846 -0.3131  0.1945 -0.4378
17644S        S24448   4.985   4.375  18.318 -0.1645 -0.5230 -0.1852
17645S        S24449   8.491   4.969  14.152 -0.2692 -0.4063  0.2631
17646S        S24450   8.848  11.981  20.868  0.1776 -0.6161 -0.3073
17647S        S24451   1.989  10.555  11.893 -0.1155 -0.3932  0.1999
17648S        S24452   3.858   1.202  20.806  0.7184  0.1848  0.1710
17649S        S24453   6.666   9.030  29.546  0.6429  0.3004 -0.3096
17650S        S24454   8.949   2.123  14.194  0.1559 -0.2555  0.0779
17651S        S24455   3.548   3.781  21.688 -0.4012  0.0460 -0.0704
17652S        S24456  11.683   8.728  12.374 -0.3251 -0.1385 -0.3046
17653S        S24457   6.216   0.214  22.580 -0.3493 -0.0882 -0.1686
17654S        S24458   3.295   9.566  15.564  0.0367 -0.0703  0.0940
17655S        S24459   2.744   4.022  18.149  0.3165  0.0662  0.4393
17656S        S24460   5.022   6.855  16.982 -0.2919  0.1865  0.2343
17657S        S24461   2.587   7.118  30.171 -0.2018 -0.0593  0.1637
17658S        S24462   3.236  11.064  14.119 -0.4060 -0.7092 -0.1499
17659S        S24463  11.772   2.327  26.935 -0.3558  0.0360 -0.5341
17660S        S24464  12.029   7.951  11.475 -0.3192  0.0120  0.0315
17661S        S24465   8.066   8.278  12.789  0.1062 -0.8843 -0.2692
17662S        S24466   8.776   5.301  17.149 -0.2251  0.3875  0.2398
17663S        S24467   0.302   7.425  17.149 -0.0970 -0.2432 -0.1631
17664S        S24468   8.434   2.876  20.180 -0.0319  0.1302 -0.1124
17665S        S24469   8.136   4.456  16.766  0.2014 -0.4750 -0.2684
17666S        S24470   1.142   1.281  27.718  0.3093  0.4261 -0.2768
17667S        S24471   5.117  11.362  13.521  0.0407 -0.4690 -0.0679
17668S        S24472   2.620   9.396  17.276 -0.0087  0.0761  0.4210
17669S        S24473   0.175   6.352  15.534 -0.3219  0.3056 -0.6382
17670S        S24474   6.551   9.537  36.474 -0.0916 -0.1684  0.2642
17671S        S24475   7.827   5.788  15.295 -0.0508  0.0044 -0.3149
17672S        S24476  11.156  11.119  11.874 -0.4604 -0.1381 -0.7855
17673S        S24477   4.072   3.739  20.792 -0.2899  0.1556 -0.3920
17674S        S24478   2.053   1.446   0.465 -0.0039  0.1482  0.1639
17675S        S24479   0.275   9.066  18.261 -0.5500  0.3672  0.2871
17676S        S24480   5.002   4.724  24.994 -0.4785 -0.2968  0.6895
17677S        S24481   9.374  10.141  31.375  0.6678 -0.4948  0.8720
17678S        S24482   8.907   3.437  18.766 -0.0373  0.0916  0.5783
17679S        S24483   4.329   4.653  22.347 -0.4731  0.2030 -0.6314
17680S        S24484   4.413  12.020  17.629  0.2043 -0.1413  0.3587
17681S        S24485   3.766   0.241  14.329 -0.2233  0.2486  0.1077
17682S        S24486   2.112   4.404  27.421 -0.0646 -0.1833 -0.0890
17683S        S24487  10.203   9.420  14.828  0.0312 -0.1449  0.5295
17684S        S24488   3.640   3.136  24.436 -0.0767  0.5974  0.0276
17685S        S24489   2.301   9.442  20.983 -0.2100 -0.3137 -0.2879
17686S        S24490   3.652   5.419  13.526  0.2168  0.1621  0.0379
17687S        S24491   6.175   5.363  18.128 -0.1423  0.1216  0.1739
17688S        S24492   8.191  11.336  28.106 -0.2953 -0.0526 -0.2351
17689S        S24493   2.526   5.389  17.996  0.4286 -0.4877 -0.3966
17690S        S24494   2.859   4.860  20.641  0.0835 -0.1992 -0.2089
17691S        S24495   7.210   1.726  24.433 -0.1615  0.3592 -0.3775
17692S        S24496  11.380   4.421  25.131 -0.8470 -0.2550 -0.0997
17693S        S24497   9.369   1.447  26.001  0.1817 -0.7673 -0.2931
17694S        S24498   0.645   8.213  17.249 -0.1641 -0.6468  0.6564
17695S        S24499  10.161   8.262  12.082 -0.4752  0.1183 -0.3146
17696S        S24500   2.739  10.323  17.532  0.5721  0.3080 -0.4833
17697S        S24501   5.908   2.523  31.273  0.4505 -0.5856  0.1212
17698S        S24502  10.372   6.089  30.847 -0.1406  0.2865  0.1351
17699S        S24503   0.554   6.190  15.190  0.2274 -0.1609 -0.3707
17700S        S24504   0.344   8.510  46.194  0.1098  0.0754  0.0974
17701S        S24505   1.282   6.458  28.995  0.5196  0.1854 -0.4330
17702S        S24506   0.437   1.807  20.149  0.3963 -0.0188  0.2621
17703S        S24507   1.020  11.763  26.050 -0.6806 -0.8610  0.5373
17704S        S24508   9.076   5.277  25.983 -0.0363 -0.0233 -0.2426
17705S        S24509   6.614  11.476  15.205 -0.3700 -0.2290 -0.4319
17706S        S24510  11.180   7.230  26.961  0.2629 -0.3700 -0.0495
17707S        S24511   1.736   4.605  26.550  0.6667  0.0303 -0.6202
17708S        S24512   6.738   8.659  23.527 -0.5970 -0.1530 -0.3033
17709S        S24513   5.283   6.619  28.208 -0.0359 -0.3178  0.7046
17710S        S24514   8.059   9.742  24.209 -0.1046  0.4074  0.7342
17711S        S24515   3.309   2.227  12.547  0.3371  0.0789  0.3855
17712S        S24516   2.945   9.510  28.412  0.2078 -0.0739  0.0883
17713S        S24517   3.388  10.118  32.480 -0.2285 -0.2912  0.5387
17714S        S24518  11.542  11.558  24.747  0.5215  0.5679 -0.1826
17715S        S24519   9.627   0.311  18.957  0.7263 -0.1747 -0.3363
17716S        S24520   8.194   3.990  26.418  0.2073 -0.0666 -0.1054
17717S        S24521   2.311   6.159  29.528 -0.0237  0.0545 -0.9224
17718S        S24522   7.169  10.480  15.991 -0.4168 -0.1732 -0.2344
17719S        S24523   9.080   0.232  25.664  0.1729  0.5805 -0.8504
17720S        S24524   9.420   9.657  27.293  0.0811  0.7337 -0.3340
17721S        S24525   7.497  11.132  22.221  0.0962  0.2199 -0.1184
17722S        S24526   9.206   4.819  24.713 -0.4056 -0.0239 -0.0206
17723S        S24527   1.034   1.248  11.948 -0.0242  0.2105 -0.4017
17724S        S24528   8.951  11.477  25.460  0.1522 -0.2563 -0.0870
17725S        S24529   6.231   4.673  26.349  0.1103 -0.2207 -0.4784
17726S        S24530   2.341   7.274  14.801 -0.1193 -0.4484 -0.1011
17727S        S24531   2.661   7.053  16.419 -0.0089  0.3197 -0.2700
17728S        S24532   3.718   6.398  31.601  1.0980 -0.0451 -0.2388
17729S        S24533   5.700  11.702  29.525  0.3674 -0.5899  0.3064
17730S        S24534   3.197   5.083  22.276 -0.1040 -0.3017  0.1801
17731S        S24535   0.011   6.264  13.975 -0.1977  0.5992  0.0568
17732S        S24536   9.758  10.261  11.332  0.1792  0.2451 -0.0444
17733S        S24537   9.854  11.031  18.398  0.7259  0.1050 -0.2142
17734S        S24538   3.698   8.435  24.599  0.5085  0.1158  0.0479
17735S        S24539   1.247  11.810  16.766  0.0738  0.1838  0.1205
17736S        S24540   6.320   2.385  15.374  0.1861 -0.6813 -0.3814
17737S        S24541   9.021   1.599  27.920 -0.0306  0.2067  0.0983
17738S        S24542   3.494   7.080  19.700 -0.6996  0.3532 -0.3166
17739S        S24543   2.670   6.315  26.830 -0.5347  0.0145  0.3165
17740S        S24544   2.213   6.753  30.911  0.5365  0.0709  0.5398
17741S        S24545   6.630   9.128  21.280  0.1984  0.2474  0.2173
17742S        S24546   8.156   3.975  19.712 -0.0546 -0.0777 -0.1409
17743S        S24547   0.633   9.431  25.935 -0.1707  0.6994  0.4972
17744S        S24548  10.601   3.977  22.254  0.4902  0.0674  0.1042
17745S        S24549   0.133   2.392  22.445  0.1395 -0.0177 -0.1405
17746S        S24550   9.333  11.692  20.427  0.3148 -0.0233 -0.0804
17747S        S24551  10.151   2.680  25.177  0.6816 -0.1921  0.4799
17748S        S24552   8.451   6.474  27.845  0.6897  0.2554  0.1414
17749S        S24553   7.851   4.156  23.318  0.0846  0.1050 -0.1898
17750S        S24554   2.922  11.673  18.776  0.3032 -0.1825  0.0741
17751S        S24555   6.245  10.463  24.946 -0.0321 -0.1150 -0.4270
17752S        S24556   6.602  11.339  14.178 -0.0821  0.0624 -0.2328
17753S        S24557   7.345   9.981  18.677 -0.4380 -0.1947  0.4289
17754S        S24558   6.243   8.605  22.145  0.1318 -0.2308  0.1448
17755S        S24559   7.422   9.974  28.880 -0.8173 -0.2323  0.3417
17756S        S24560   4.311   9.271  20.420 -0.3612 -0.0768 -0.2883
17757S        S24561  10.543   0.755  25.318  0.3888  0.4156  0.2295
17758S        S24562  11.642   0.189  21.988  0.2284 -0.1531 -0.1832
17759S        S24563   6.446   7.299  30.520  0.0893  0.0589  0.4877
17760S        S24564  10.995   3.733  11.774  0.1814 -0.1349 -0.3861
17761S        S24565  10.928   6.004  20.581 -0.3854 -0.0777 -0.2280
17762S        S24566   7.449   1.132  32.425  0.2278 -0.9020 -0.0803
17763S        S24567   2.503   3.504  23.037 -0.0593 -0.1002  0.2351
17764S        S24568   7.778   3.180  17.209  0.0284  0.5352  0.0729
17765S        S24569   0.173   9.535  25.021 -0.2549 -0.1602 -0.2809
17766S        S24570   9.619   9.732  25.926 -0.1418  0.3853 -0.0007
17767S        S24571   7.860  10.374  20.987 -0.0266 -0.2315  0.5912
17768S        S24572   8.326   1.315  15.218  0.2231  0.1283 -0.4649
17769S        S24573   3.037   5.279  26.876 -0.5238  0.3803  0.3590
17770S        S24574   9.415  11.934  26.387  0.0817 -0.1101 -0.0478
17771S        S24575  10.369   8.434  28.630 -0.1262 -0.0992  0.6225
17772S        S24576   7.854   1.573  27.114  0.1017 -0.3423 -0.0545
17773S        S24577  11.316   1.978  11.479  0.5009  0.3054 -0.4802
17774S        S24578   3.145   4.388  15.094  0.4736 -0.0016 -0.1482
17775S        S24579   1.557   2.585  24.703 -0.3768  0.3804 -0.0330
17776S        S24580   3.032  11.976  25.651  0.2786 -0.4398 -0.1724
17777S        S24581   6.343   8.594  25.102 -0.2463  0.1616 -0.1745
17778S        S24582   9.180   5.337  25.498 -0.6389  0.0134 -0.0604
17779S        S24583   5.977   0.239  31.406  0.0604 -0.2636 -0.4700
17780S        S24584   9.507   2.076  21.667  0.4253 -0.0517 -0.2239
17781S        S24585   5.890   6.288  28.696 -0.7175  0.0361  0.2084
17782S        S24586   0.807   6.106  18.435 -0.0881  0.1809  0.1408
17783S        S24587   2.728   1.519  20.007 -0.4242  0.2009 -0.1709
17784S        S24588   1.789  11.968  28.080  0.2026  0.7153  0.3540
17785S        S24589  10.578   3.073  17.018  0.2303  0.2569  0.0630
17786S        S24590  11.211   5.254  31.416 -0.4849 -0.3745  0.8255
17787S        S24591   7.962   4.244  29.469  0.2365  0.3494  0.1559
17788S        S24592   7.418   5.181  11.989 -0.0601 -0.0015  0.6415
17789S        S24593   1.670   4.445  14.180 -0.1713  0.0911 -0.1608
17790S        S24594   3.075  11.824  22.917  0.0375 -0.2036 -0.5873
17791S        S24595   6.942   3.501  19.115  0.1501 -0.1594  0.0735
17792S        S24596   6.645   1.834  25.165 -0.3206 -0.2307  0.0695
17793S        S24597   6.478  10.664  32.430 -0.5167 -0.0521 -0.0722
17794S        S24598   3.479   0.012  26.892  0.3994 -0.0889  0.2770
17795S        S24599   3.370   4.047  13.533 -0.0692  0.5489 -0.0966
17796S        S24600   7.187   3.050  30.098 -0.7150 -0.6776  0.2356
17797S        S24601   2.998   1.724   6.404  0.4728  0.0027  0.2100
17798S        S24602  11.766   2.176  21.219 -0.2023 -0.5388 -0.0703
17799S        S24603   1.758   7.069  17.957  0.3959 -0.0864  0.3483
17800S        S24604   5.482  12.360  19.718  0.2906 -0.3498  0.4862
17801S        S24605   4.979   9.057  27.333  0.2451 -0.5427 -0.2730
17802S        S24606   8.989   9.703  24.512 -0.2002  0.3047 -0.1418
17803S        S24607  11.320   8.699  13.372  0.0076 -0.0989 -0.0803
17804S        S24608   5.600   2.031  30.112 -0.0620 -0.3117  0.3983
17805S        S24609   6.518   7.058  14.106 -0.2644  0.4369  0.2369
17806S        S24610   9.109   8.741  31.285 -1.1204 -0.1461  0.6025
17807S        S24611   6.690  11.687  23.180 -0.5149  0.0882  0.4806
17808S        S24612   3.963   0.642  29.629  0.4115 -0.4256 -0.1212
17809S        S24613  11.897   0.700  22.085 -0.1960  0.5865 -0.3398
17810S        S24614   6.852   9.043  40.283 -0.1498  0.0415 -0.0730
17811S        S24615   2.002   1.317  25.313  0.1220 -0.3542 -0.1072
17812S        S24616   1.545   4.055  21.405 -0.4323 -0.0658  0.1779
17813S        S24617   0.671   9.333  13.236  0.1631  0.2505 -0.3402
17814S        S24618   6.572   3.000  20.671  0.1187  0.0164 -0.3698
17815S        S24619  10.361  11.825  13.149 -0.0988  0.0302  0.0585
17816S        S24620   4.671   1.380  38.056  0.5473 -0.4180  0.2545
17817S        S24621   7.284  12.075  25.777  0.5312  0.5511 -0.3137
17818S        S24622  12.335   4.389  29.030 -0.3824  0.6170 -0.0473
17819S        S24623   4.687  11.111  23.695  0.1112  0.0862  0.1739
17820S        S24624   2.750   8.904  32.498  0.2201  0.3710 -0.2262
17821S        S24625  10.725   2.126  16.590 -0.2293  0.1753  0.1039
17822S        S24626   4.631   3.007  29.375 -0.2561  0.0204 -0.8789
17823S        S24627   9.057  10.081  29.279 -0.3204  0.5440  0.6174
17824S        S24628  10.241   9.610  18.118  0.1525 -0.3956 -0.3829
17825S        S24629  12.189   9.575  17.782  0.4841  0.3131 -0.2297
17826S        S24630   7.122   4.204  18.143  0.8909  0.4035 -0.0329
17827S        S24631   7.681   3.342  24.080 -0.0164  0.8203 -0.6050
17828S        S24632   6.667  12.280  13.800 -0.2975 -0.0704 -0.4870
17829S        S24633   4.808   8.456  26.444  0.5229 -0.2015  0.0565
17830S        S24634   9.935   0.619  27.369  0.5691  0.2483  0.9333
17831S        S24635   7.354   6.451  20.790 -0.0586  0.0090  0.3785
17832S        S24636  10.388   6.246  18.892  0.0341  0.0537 -0.4582
17833S        S24637  11.114   1.063  16.681 -0.0412  0.5366  0.0724
17834S        S24638  10.911   8.999  21.575 -0.2325 -0.4405  0.2192
17835S        S24639   7.388   4.331  23.523  0.3826  0.0715  0.2670
17836S        S24640   6.353   2.703  17.662  0.1152 -0.3308 -0.3936
17837S        S24641   0.494   4.316  12.563 -0.0535  0.1794 -0.1088
17838S        S24642   4.695   0.889  18.856  0.2500 -0.2329 -0.1072
17839S        S24643   1.713   3.568  21.563  0.2363  0.2634  0.7278
17840S        S24644   5.052   1.814  25.825  0.3671  0.0804 -0.0544
17841S        S24645  10.619   3.495  20.050  0.2736 -0.4223  0.9818
17842S        S24646   7.368   3.682  26.439 -0.0823 -0.3245  0.0247
17843S        S24647   6.655  12.100  15.814 -0.0040 -0.1727 -0.4250
17844S        S24648   3.323  11.353  42.452  0.3998 -0.1236  0.5273
17845S        S24649  10.512   7.775  14.537 -0.1880  0.0417 -0.2681
17846S        S24650   9.827   5.859  22.690  0.1169 -0.0728 -0.4348
17847S        S24651   9.194   9.565  19.511  0.1366  0.2755 -0.2825
17848S        S24652   4.771   3.683  20.214  0.7331  0.5272 -0.1053
17849S        S24653   6.869   7.781  12.482 -0.1903  0.0035  0.1093
17850S        S24654   3.555   3.743  14.423 -0.1192  1.0180  0.1792
17851S        S24655   0.306   6.039  18.168 -0.2851  0.1050  0.1935
17852S        S24656   8.801   4.390  37.030  0.4765 -0.3044  0.1637
17853S        S24657  11.680   7.991  12.057 -0.4429  0.1811 -0.0413
17854S        S24658   3.078  10.090  20.955  0.2315 -0.0976 -0.2827
17855S        S24659   4.747   0.120  31.304 -0.2310  0.5467  0.7500
17856S        S24660   1.070   0.612  19.557 -0.2829  0.2948 -0.3036
17857S        S24661   3.483  11.738  24.915  0.0267 -0.3695 -0.5053
17858S        S24662   6.957   0.494  16.462  0.2680 -0.2777  0.3240
17859S        S24663   1.180   9.843  21.608  0.0770  0.6167 -0.0367
17860S        S24664   5.103   5.101  19.078  0.0885 -0.3754  0.4070
17861S        S24665   8.178   6.758  14.111  0.3817  0.1327 -0.1188
17862S        S24666   5.489   2.305  17.655 -0.0222  0.2596  0.3205
17863S        S24667   5.112   1.607  21.649  0.0762  0.0324  0.4683
17864S        S24668   7.192   5.780  32.296  0.1728 -0.3863  0.4585
17865S        S24669   4.597   4.673  14.376 -0.2473  0.5041 -0.6141
17866S        S24670   6.495   7.851  16.627  0.2933  0.2989 -0.3108
17867S        S24671   9.056  10.900  20.788  0.2256  0.1092  0.3355
17868S        S24672   7.532   7.359  20.657 -0.1661  0.4090  0.4839
17869S        S24673  10.510   3.170  25.979 -0.2358 -0.0693 -0.4996
17870S        S24674   9.352   5.697  48.784  0.0361 -0.1430  0.5128
17871S        S24675   3.934   5.205  16.648  0.6521 -0.1768 -0.0903
17872S        S24676   0.799   8.630  16.907 -0.1385  0.2220  0.5787
17873S        S24677   8.133   3.845  18.546 -0.3689 -0.0651  0.1453
17874S        S24678   6.773   5.394  19.241 -0.3143  0.0823 -0.1349
17875S        S24679   2.113  10.476  23.721 -0.2026  0.0903  0.5267
17876S        S24680  12.273   0.587  23.953  0.1231 -0.2069  0.3768
17877S        S24681   7.405   0.159  25.549 -0.3524  0.3702  0.3312
17878S        S24682   0.902   9.575  20.154  0.5672 -0.1589 -0.0420
17879S        S24683   8.132   7.596  25.719 -0.2589  0.2014  0.6389
17880S        S24684   5.725   8.107  49.811  0.1033 -0.1420  0.2674
17881S        S24685   6.812   3.214  19.602 -0.3075  0.0552  0.1280
17882S        S24686   8.719   3.973  14.326 -0.4839 -0.0690 -0.1666
17883S        S24687   3.614   4.873  14.270  0.2633 -0.5253 -0.0909
17884S        S24688   7.983  11.907  14.993 -0.5601  0.1352  0.2755
17885S        S24689   6.310   8.168  19.207  0.0798 -0.4927  0.2637
17886S        S24690   3.778   9.790  19.681  0.0098  0.2615  0.3816
17887S        S24691   7.626   6.838  26.168  0.1369  0.4372 -0.3111
17888S        S24692  11.455   5.893  21.771  0.4853 -0.2488  0.7137
17889S        S24693  11.457  10.673  14.267  0.0151 -0.3091 -0.6201
17890S        S24694  12.148   0.108  15.386 -0.5420  0.0586  0.1266
17891S        S24695   2.783  10.550  37.322  0.0082  0.3036  0.1195
17892S        S24696  10.118   5.285  11.674  0.0811 -0.0138 -0.1511
17893S        S24697   3.223  10.510  31.162  0.2741  0.0252  0.7981
17894S        S24698   9.949   8.118  15.183  0.2233  0.1195  0.3835
17895S        S24699   1.829   7.534  18.101  0.6093 -0.1168  0.7522
17896S        S24700   8.961  10.791  31.108 -0.0517 -0.3395  0.2798
17897S        S24701   9.435   1.812  19.410  0.2125  0.1928 -0.1304
17898S        S24702  10.891   6.011  27.826 -0.3122 -0.4992 -0.3682
17899S        S24703   3.233   8.107  17.775  0.5641 -0.2632  0.1186
17900S        S24704   3.175   5.054  15.990  0.3234  0.0762  0.2540
17901S        S24705   6.718   8.507  17.534  0.5259  0.1615 -0.0150
17902S        S24706   3.857   0.629  32.436 -0.0373  0.0571 -0.1417
17903S        S24707   0.870   1.949  18.401  0.3308  0.1698  0.0610
17904S        S24708   8.554  10.976  19.498  0.1931 -0.2262 -0.2876
17905S        S24709   3.734   2.945  17.013  0.0198 -0.1842 -0.2006
17906S        S24710   0.661  11.732  32.200  0.5385  0.3182  0.1859
17907S        S24711  10.291  10.582  26.675  0.1298 -0.1877 -0.0512
17908S        S24712   4.171  10.317  16.096 -0.1839  0.6376 -0.1333
17909S        S24713   6.274   6.427  13.670  0.2739 -0.2954  0.2253
17910S        S24714   7.818  12.074  30.662 -0.0538  0.5405 -0.5776
17911S        S24715   0.462   0.325  22.027 -0.5610  0.4640  0.0467
17912S        S24716   7.071   5.404  18.259  0.5491  0.2670 -0.3730
17913S        S24717   1.190   2.853  25.121 -0.3144  0.2668  0.3312
17914S        S24718   6.680   7.122  12.229  0.2922  0.4375 -0.0285
17915S        S24719   1.215  11.574  26.625 -0.3636  0.9272 -0.4503
17916S        S24720   6.352   0.682  25.687  0.5081 -0.0161 -0.3091
17917S        S24721   3.829  11.019  18.435  0.1646 -0.0659  0.4703
17918S        S24722   1.382   5.628  26.700  0.3410 -0.1672  0.3034
17919S        S24723   9.908   9.907  29.783 -0.3769  0.0015 -0.0617
17920S        S24724   4.544   4.919  17.369 -0.0909 -0.3404  0.0167
17921S        S24725   7.551   9.529  18.714 -0.0964 -0.5029 -0.1137
17922S        S24726   0.735  10.212  19.413 -0.0044 -0.2401 -0.1464
17923S        S24727   1.617  11.509  27.218 -0.1836 -0.0704 -0.0706
17924S        S24728   5.852   9.315  21.025 -0.1042  0.1053 -0.2662
17925S        S24729   1.935   6.018  18.162 -0.1218  0.0285  0.0801
17926S        S24730   2.267  11.115  37.798 -0.4450 -0.0242 -0.0560
17927S        S24731   9.154   2.145  30.710  0.1074  0.0135 -0.4764
17928S        S24732   8.880  10.788  12.548  0.2494  0.2082 -0.4231
17929S        S24733  10.579   9.005  13.813  0.2352 -0.2039  0.1886
17930S        S24734   5.503   6.394  15.725 -0.1070  0.4246  0.2336
17931S        S24735   2.855  10.862  15.480  0.2909 -0.4705 -0.1994
17932S        S24736   6.245   1.973  25.990 -0.1994  0.0850 -0.0246
17933S        S24737   8.314   7.716  17.555 -0.1405  0.0637  0.3521
17934S        S24738   3.226  11.417  19.894 -0.0617  0.0815  0.4225
17935S        S24739   3.068   8.372  13.346  0.3260  0.5051  0.1509
17936S        S24740   6.394   4.557  37.174  0.4021  0.1687  1.2076
17937S        S24741   7.496   6.189  27.551 -0.2643 -0.2391  0.7299
17938S        S24742   4.975   5.361  20.272  0.5859 -0.0393  0.3312
17939S        S24743  11.739   4.774  25.225  0.0919  0.3939 -0.6084
17940S        S24744   4.456  10.571  13.315 -0.3802 -0.2374 -0.1228
17941S        S24745   4.095   4.704  11.894  0.3658 -0.4586  0.1838
17942S        S24746   4.356   1.801  21.254 -0.1242  0.0981  0.7364
17943S        S24747   5.633  10.034   9.584 -0.1213 -0.1210  0.2041
17944S        S24748   8.776   5.862  21.033 -0.2735 -0.3658 -0.3998
17945S        S24749   2.943   4.340  15.599 -0.0086 -0.2773 -0.2353
17946S        S24750   6.556   5.100  18.307  0.0494  0.6448 -0.3215
17947S        S24751   4.589   3.749  22.096  0.3800 -0.3142 -0.0836
17948S        S24752   0.240   1.362  20.261  0.4935  0.1240  0.0615
17949S        S24753   5.613   4.046  29.749 -0.2588 -0.4838 -0.3270
17950S        S24754   4.078   3.303  25.764  0.1251  0.3203 -0.0261
17951S        S24755   4.103   7.012  23.726 -0.0989 -0.3051 -0.0536
17952S        S24756   0.251   2.602  22.001 -0.1112 -0.1035 -0.0617
17953S        S24757   8.248  11.107  27.653  0.1732  0.1285 -0.2614
17954S        S24758   7.719   9.338  21.007 -0.1681 -0.3150 -0.2946
17955S        S24759   8.806   9.382  21.551 -0.1039  0.0605  0.0995
17956S        S24760   7.837   6.641  17.144  0.0507 -0.2672  0.1375
17957S        S24761   5.914  10.996  30.455 -0.0900 -0.1504  0.3223
17958S        S24762   6.123   6.846  18.656 -0.2103 -0.0851 -0.0748
17959S        S24763   9.568   5.269  12.064  0.0939 -0.1682  0.4911
17960S        S24764   2.283   5.076  20.401 -0.2180  0.6985 -0.2070
17961S        S24765   0.711   3.551  16.687 -0.3598 -0.8339  0.3522
17962S        S24766  10.039   2.253  12.969  0.1221 -0.5340  0.2720
17963S        S24767   6.680  10.041  16.785  0.0530  0.0419 -0.0269
17964S        S24768   3.966   6.755  16.955  0.4429  0.9428 -0.1399
17965S        S24769   8.683   0.744  31.917 -0.1287  0.2412  0.1215
17966S        S24770   2.371   3.805  24.950  0.4876 -0.0532 -0.3831
17967S        S24771   5.885  11.800  11.739  0.1893  0.4720  0.2381
17968S        S24772   2.104   9.082  19.280 -0.0978  0.4644  0.5893
17969S        S24773  11.576   8.047  27.221 -0.0061  0.5647  0.0010
17970S        S24774  11.094   3.605  26.904  0.3513 -0.5381  0.1414
17971S        S24775   4.255  12.163  13.170  0.1191  0.2934  0.2437
17972S        S24776   4.989   8.946  14.489  0.1995 -0.1614 -0.2062
17973S        S24777   6.557  11.836  31.324  0.1983 -0.3371 -0.1322
17974S        S24778   8.661   6.814  26.637  0.3572 -0.2236  0.4051
17975S        S24779   1.237  11.322  25.764 -0.1796 -0.4744  0.3229
17976S        S24780   4.615   3.256  17.399 -0.3570  0.7802 -0.1522
17977S        S24781   5.911   7.099  27.666  0.0158 -0.3274 -0.6590
17978S        S24782   0.966  12.241   6.061 -0.1406  0.2532  0.2454
17979S        S24783   7.151   7.454  18.746 -0.1109 -0.2916  0.5182
17980S        S24784   9.526   1.221  16.916 -0.0443 -0.2164  0.2571
17981S        S24785   9.213   7.244  16.919 -0.0025 -0.0072 -0.2047
17982S        S24786  11.656   3.924  23.911  0.1777  0.3576  0.3508
17983S        S24787   5.301  10.005  22.561 -0.1666 -0.0704 -0.1767
17984S        S24788   1.422  10.658  15.847  0.1554 -0.1304  0.2786
17985S        S24789   3.795   8.707  32.096 -0.0258  0.6519 -0.0161
17986S        S24790   7.112   0.987  14.808  0.1892  0.5464 -0.5324
17987S        S24791   4.529  12.003  16.163  0.3792  0.3027  0.1721
17988S        S24792   6.874   3.650  21.771 -0.3184  0.2212  0.0589
17989S        S24793   6.959   4.651  13.144  0.4615 -0.0464  0.2314
17990S        S24794   6.749   2.377  19.992 -0.0482  0.0767 -0.4417
17991S        S24795   8.766   6.073  11.500  0.1702 -0.1670  0.3731
17992S        S24796   8.271   5.004  15.411  0.2854 -0.2062 -0.1610
17993S        S24797   3.768   1.300  25.081  0.2762 -0.1933 -0.3003
17994S        S24798  10.782   1.765  19.566 -0.2575 -0.2015  0.1059
17995S        S24799  11.016   4.156  22.553  0.2024 -0.4300 -0.0629
17996S        S24800   6.617   7.312  15.861 -0.2882  0.2137 -0.0903
17997S        S24801   8.722   6.993  12.668  0.2214  0.0584  0.1912
17998S        S24802  12.279   5.842  28.755 -0.3276 -0.0852  0.1703
17999S        S24803   2.106  11.634  23.964  0.1099 -0.0884  0.0308
18000S        S24804   8.188   8.655  16.182  0.0930 -0.3344  0.0408
18001S        S24805  10.046   8.184  31.116 -0.0572  0.3637 -0.3866
18002S        S24806   7.746  10.256  11.154  0.2536 -0.0078 -0.2502
18003S        S24807  11.269   6.545  13.431 -0.0177  0.4483  0.1087
18004S        S24808   7.536   0.632  27.518 -0.7900 -0.5699 -0.2241
18005S        S24809   3.523   3.792  19.331  0.3519  0.4664  0.0342
18006S        S24810   4.988   0.052  11.092 -0.2018 -0.2078  0.0973
18007S        S24811   9.004   1.378  12.056 -0.4055  0.3073  0.2057
18008S        S24812   8.440   2.902  23.942 -0.1383  0.0901 -0.6339
18009S        S24813  10.313   0.799  26.994  0.4754  0.0918  0.6503
18010S        S24814   7.761  11.119  20.564  0.2006 -0.3481  0.5132
18011S        S24815   9.488   9.235  11.504  0.2840 -0.0034  0.3557
18012S        S24816   1.289   7.568  27.313 -1.5211 -0.3394 -0.0400
18013S        S24817   7.513   6.225  13.408 -0.5892  0.0953  0.0851
18014S        S24818   3.435   8.465  30.958 -0.5422 -0.5102 -0.3102
18015S        S24819   8.645   1.290  18.515 -0.0586 -0.3106  0.0327
18016S        S24820   8.386   9.488  26.100  0.6071  0.0949  0.2982
18017S        S24821   3.336   7.549  16.407 -0.0431  0.1466 -0.3399
18018S        S24822   9.578   7.364  26.683  0.1470 -0.4611  0.0518
18019S        S24823  10.102   3.902  20.691 -0.1208  0.0143 -0.0756
18020S        S24824   9.930   6.103  15.911 -0.1522 -0.3412 -0.2612
18021S        S24825   7.242   5.678  16.780 -0.3581  0.0238  0.1271
18022S        S24826   8.889   3.010  28.110  0.4812 -0.3568 -0.2656
18023S        S24827   3.108   7.462  15.893  0.5585  0.3437  0.2484
18024S        S24828  11.791   1.854  13.503 -0.2917 -0.2250 -0.1200
18025S        S24829   9.894   5.536  11.267  0.4005  0.6428  0.0259
18026S        S24830   2.225   3.408  17.778 -0.1699 -0.7342 -0.5066
18027S        S24831   1.146   8.230  12.600  0.1236  0.0309 -0.4023
18028S        S24832   7.247  11.142  13.537 -0.3265  0.1688 -0.4174
18029S        S24833   0.344   4.431  21.400 -0.2980 -0.5594  0.1005
18030S        S24834   3.477  10.317  19.854  0.1784  0.4629 -0.3669
18031S        S24835   8.646   1.927  18.500 -0.5599 -0.1183 -0.3946
18032S        S24836  11.491   9.309  22.693 -0.7158 -0.5544 -0.2019
18033S        S24837   4.703  12.070  30.773 -0.2339 -0.1770  0.6744
18034S        S24838   9.186   9.871  22.219 -0.2703  0.0723 -0.5355
18035S        S24839   6.145   1.284  16.607  0.2086 -0.5700 -0.2292
18036S        S24840  10.524   2.483  13.060  0.0173 -0.0948 -0.1947
18037S        S24841   9.508   6.447  28.595 -0.1754  0.0535  0.1112
18038S        S24842   7.721   7.285  19.688 -0.1862 -0.1492 -0.4376
18039S        S24843  10.956   4.986  31.031  0.1731  0.3381 -0.2683
18040S        S24844  11.528   4.371  13.799 -0.0099 -0.1692 -0.4831
18041S        S24845   8.363   6.098  21.502 -0.4031 -0.0249 -0.1579
18042S        S24846   1.887   2.804  20.193  0.0915 -0.0381  0.4097
18043S        S24847   2.793   0.307  21.484  0.0011 -0.0174  0.3485
18044S        S24848   3.815   8.575  26.327  0.1062  0.2202 -0.4677
18045S        S24849   4.773   2.441  31.293 -0.0215 -0.3583  0.2345
18046S        S24850   9.925   0.768  29.321  0.0587  0.0945 -0.0468
18047S        S24851   0.298   1.209  14.526 -0.2378  0.1812  0.5050
18048S        S24852  10.861   8.682  34.357 -0.0426  0.2143  0.7991
18049S        S24853   9.485   7.724  20.906  0.0574  0.5623 -0.3373
18050S        S24854   2.959   1.598  25.506  0.2024  0.4160  0.3776
18051S        S24855   3.561   5.351  21.697 -0.2964  0.0800 -0.5353
18052S        S24856   9.350   4.269  25.636 -0.5319 -0.4841  0.4455
18053S        S24857   6.511   7.712  20.476 -0.6883  0.3317 -0.7076
18054S        S24858   4.345   2.854  20.515 -0.2616  0.0030 -0.2484
18055S        S24859   1.097  11.699  24.265 -0.2335 -0.4139  0.0955
18056S        S24860   3.215   3.293  18.830  0.0316 -0.5357 -0.3239
18057S        S24861   5.865   2.783  25.934  0.2559  0.0480  0.4608
18058S        S24862   4.802   4.664  16.962 -0.0316 -0.2119 -0.1826
18059S        S24863   2.975   6.797   9.990  0.1587  0.3590  0.3011
18060S        S24864   7.473   6.840  12.492  0.2666 -0.0109  0.2690
18061S        S24865  10.670   0.919  18.474 -0.0317  0.3666 -0.4255
18062S        S24866   5.859   0.808  12.392 -0.4942  0.2773 -0.6999
18063S        S24867   6.082   6.655  24.493  0.2975 -0.0097  0.2834
18064S        S24868   3.742   4.102  10.889 -0.1741 -0.3818  0.5119
18065S        S24869   5.251   1.368  23.813 -0.0119  0.2728  0.0542
18066S        S24870   9.528   7.351  25.316  0.1025  0.0815  0.0428
18067S        S24871   7.579   1.094  21.539  0.0990 -0.1226  0.1420
18068S        S24872  10.627  11.613  18.821  0.5190  0.2931  0.1730
18069S        S24873   4.178   6.897  21.066  0.0900 -0.0339  0.0171
18070S        S24874  12.234  10.672  19.742  0.0152  0.0902  0.1488
18071S        S24875   0.019   2.684  25.984 -0.1928 -0.6328  0.0503
18072S        S24876   3.449   5.238  26.588  0.3160 -0.3091  0.0455
18073S        S24877   5.919  10.103  13.447 -0.2697 -0.3382  0.1990
18074S        S24878   2.742   1.693  22.446  0.5475 -0.2349  0.2880
18075S        S24879  11.167   8.815  15.232 -0.0957 -0.3391  0.2789
18076S        S24880  11.032   4.236  21.037  0.0182 -0.0292  0.5571
18077S        S24881   9.981   1.622  11.965 -0.4698  0.1762  0.0871
18078S        S24882  10.686   2.065  25.113  0.0591  0.2931  0.0332
18079S        S24883  12.187   5.560  26.046  0.2707  0.5441 -0.0850
18080S        S24884   7.833   2.187  34.056  0.1566 -0.1192  0.0746
18081S        S24885   3.778   1.118  14.863  0.4938  0.2658  0.0863
18082S        S24886   4.920  10.927  19.054  0.1868 -0.0370  0.2765
18083S        S24887   1.794   0.429  29.106 -0.0419  0.3349 -0.2144
18084S        S24888   2.362   6.470  27.438 -0.0337  0.2156  0.4039
18085S        S24889  10.070   6.358  30.177 -0.3116 -1.5718  0.5740
18086S        S24890   1.551   1.901  12.544  0.0618  0.2254  0.1433
18087S        S24891   7.507  11.686  23.933  0.5798  0.2343  0.0845
18088S        S24892   8.400   4.635  31.342  0.3275 -0.4528  0.1495
18089S        S24893   2.083   6.003  20.202 -0.2774  0.2882 -0.4497
18090S        S24894   2.923   7.149  32.262 -0.4884 -0.6096 -0.6143
18091S        S24895   0.445   9.743  18.138  0.0856 -0.1615  0.2685
18092S        S24896   4.105   5.896  27.587  0.3692 -0.5667 -0.1857
18093S        S24897   6.429   4.738  27.399  0.1637 -0.2274 -0.5045
18094S        S24898   7.007   6.723  23.968  0.4112 -0.3641 -0.1292
18095S        S24899   5.000  10.896  16.740 -0.1906  0.0015 -0.2083
18096S        S24900  11.421   5.468  25.607 -0.0201  0.0793  0.2666
18097S        S24901   2.894   8.301  26.182  0.4199 -0.3656  0.4032
18098S        S24902   7.638   1.850  27.581  0.0314 -0.3668 -0.0418
18099S        S24903   7.416   7.424  13.354 -0.2373  0.0231 -0.1725
18100S        S24904   6.400   5.643  22.564  0.1751  0.0248 -0.1489
18101S        S24905   9.360   4.306  18.649  0.1533  0.2247  0.1074
18102S        S24906   0.008   0.109  25.574  0.2876  0.7716 -0.3437
18103S        S24907   0.809   3.207  14.039  0.0422 -0.1596  0.0177
18104S        S24908   1.805   5.020  16.943  0.0722 -0.2998  0.4349
18105S        S24909   3.767   6.877  21.458 -0.4145  0.2061 -0.1690
18106S        S24910   9.266   9.811   6.571 -0.0077  0.0666  0.1835
18107S        S24911  11.051   0.879  14.261 -0.0770  0.0255  0.6852
18108S        S24912  10.759   0.868  28.646 -0.0496  0.1194  1.1243
18109S        S24913   2.406  11.490  31.057  0.5203  0.1627  0.6612
18110S        S24914   3.670  11.373  31.504 -0.5089  0.3112 -0.4646
18111S        S24915   9.730   3.435  24.044  0.2786 -0.4484 -0.2775
18112S        S24916   1.864  10.585  15.690  0.1325  0.7585  0.3332
18113S        S24917   7.279   7.796  14.872  0.1378  0.1291  0.0090
18114S        S24918   2.338   7.620  14.425 -0.2885 -0.2529  0.1223
18115S        S24919   2.955   7.098  24.482  0.3752 -0.3105 -0.0758
18116S        S24920   6.377  11.972  15.410 -0.0359 -0.4536  0.0893
18117S        S24921   6.027   4.818  24.647  0.4995  0.4726  0.0124
18118S        S24922   3.970   7.286  31.110 -0.2085 -0.1778 -0.2850
18119S        S24923   8.081   3.095  31.027  0.0354  0.1589  0.1072
18120S        S24924   8.676   5.125  35.907 -0.1050  0.5633  0.7706
18121S        S24925   9.972   9.299  22.372  0.3565  0.1989  0.2589
18122S        S24926   0.673   0.571  25.368 -0.3641  0.0435  0.0519
18123S        S24927  11.202   7.068  11.162 -0.0091 -0.0778  0.2281
18124S        S24928  10.952   8.983  25.840 -0.2574  0.2094  0.0311
18125S        S24929  10.513   1.463  18.398 -0.7336 -0.0667  0.4922
18126S        S24930   1.238   6.868   2.794  0.2685 -0.0775  0.2593
18127S        S24931   3.727   7.629  24.081  0.3250 -0.4219  0.0895
18128S        S24932   0.032   8.747  17.141  0.0059  0.0963 -0.2822
18129S        S24933   5.991  11.635  13.226  0.1635 -0.1197  0.3958
18130S        S24934   8.216   0.547  21.870  0.5060 -0.0401  0.0618
18131S        S24935   5.381   1.143  28.468 -0.3811  0.3824 -0.3043
18132S        S24936  10.430   5.978  27.661  0.2087 -0.6477  0.0222
18133S        S24937  10.251   4.192  26.196  0.3868 -0.2875  0.3625
18134S        S24938   1.582   0.305  21.043  0.2784  0.0035 -0.6708
18135S        S24939   1.145   4.789  18.081 -0.6517  0.4056 -0.0681
18136S        S24940   6.538   0.995  24.395 -0.0863  0.1237  0.1541
18137S        S24941   8.792  11.383  12.848  0.2524  0.2986  0.1874
18138S        S24942   3.291   2.350  33.725  0.8559 -0.1910  0.3697
18139S        S24943   7.955   5.624  31.900 -0.3245  0.8628  0.0791
18140S        S24944   7.875   4.873  30.279 -0.4031 -0.2430  1.1557
18141S        S24945   6.638   4.929  16.039 -0.3579  0.4412 -0.2667
18142S        S24946  12.344   3.023  23.053 -0.1110 -0.0925 -0.2124
18143S        S24947   4.812   4.174  18.829  0.1325 -0.1455  0.1204
18144S        S24948   2.538   7.250  18.613 -0.3523 -0.1632 -0.4370
18145S        S24949   8.364   9.860  28.888  0.0155 -0.1676 -0.0165
18146S        S24950   1.550   4.223  26.832 -0.7979  0.2298 -0.5209
18147S        S24951   4.834   1.401  13.881  0.0984 -0.1443  0.1319
18148S        S24952   3.657   9.232  18.932 -0.4603  0.0954  0.3164
18149S        S24953   7.638   5.898  19.980 -0.2106  0.0043 -0.1940
18150S        S24954   8.513  11.877  13.783  0.0568  0.1919 -0.7315
18151S        S24955   7.712   0.068  11.139 -0.4256  0.2659 -0.0784
18152S        S24956   9.146   6.747  20.138  0.2056 -0.1203 -0.0637
18153S        S24957  10.921  12.050  19.353 -0.2558  0.0446 -0.1427
18154S        S24958   6.853   1.564  16.361  0.4201 -0.3063  0.5496
18155S        S24959   1.802   3.111  17.754 -0.1985  0.5855  0.3898
18156S        S24960   8.314   5.304  28.680 -0.1895  0.2363  0.2824
18157S        S24961   7.347   1.782  27.093  0.2846 -0.6633  0.2275
18158S        S24962   3.301   7.130  22.645 -0.1097 -0.0004 -0.4038
18159S        S24963  11.488   8.285  30.744 -0.5052 -0.4444 -0.5092
18160S        S24964   6.205   2.496  23.626 -0.1839 -0.0371  0.0451
18161S        S24965   6.650   0.746  27.481 -0.2364  0.1648 -0.3957
18162S        S24966   1.339   3.908  27.868  0.1561 -0.1591 -0.3218
18163S        S24967   3.440   6.156  18.684  0.0988 -0.1683 -0.2966
18164S        S24968   7.217   0.852  11.666  0.4938 -0.0402 -0.0786
18165S        S24969   4.800   8.126  23.225  0.0504  0.1254  0.0779
18166S        S24970   8.565   8.167  25.348  0.8054 -0.3850  0.1000
18167S        S24971   6.642   9.866  28.309  0.2654  0.2023  0.1500
18168S        S24972   8.532  10.816  32.180  0.4555  0.9735  0.7035
18169S        S24973  10.810   9.650  27.358  0.0949  0.1312 -0.2763
18170S        S24974  10.718   2.819  16.462 -0.0015 -0.2266  0.1056
18171S        S24975   5.826   9.757  26.204 -0.2305 -0.3223  0.1445
18172S        S24976   8.715   0.363  23.086 -0.2271  0.3158 -0.3559
18173S        S24977   8.891   9.555  15.790  0.2161 -0.0962 -0.0085
18174S        S24978   8.228   2.602  38.080 -0.1594  0.4374  0.3549
18175S        S24979  12.308   4.311  12.136 -0.2998 -0.0333 -0.0465
18176S        S24980   6.915   8.358  26.056  0.4561  0.4021 -0.6588
18177S        S24981   1.445   8.191  13.015 -0.0206  0.0733  0.2056
18178S        S24982   4.010   3.309  23.393 -0.1663  0.1333  0.3020
18179S        S24983   5.975   6.382  13.112  0.1435  0.2384 -0.3925
18180S        S24984  10.720   7.321  15.493  0.5635  0.0462 -0.4503
18181S        S24985   1.937   3.181  24.240 -0.0551 -0.0030  0.1828
18182S        S24986   8.353   8.220  19.180 -0.2307 -0.3477 -0.4340
18183S        S24987   9.409   2.381   5.315  0.2470 -0.6000  0.1899
18184S        S24988   8.457   3.471  30.868 -0.0631 -0.4616  0.0510
18185S        S24989  12.099   9.340  13.781 -0.1393 -0.4342 -0.0003
18186S        S24990   8.078  11.797  24.845  0.2925  0.1352 -0.1973
18187S        S24991   5.688   6.939  15.827 -0.0862  0.0328 -0.2500
18188S        S24992  10.115   7.377  19.368 -0.1749  0.3085  0.0567
18189S        S24993  11.048   1.578  14.602  0.0186 -0.5380 -0.2260
18190S        S24994   4.947   6.942  47.747 -0.1198  0.0439  0.5845
18191S        S24995  10.434   8.427  29.230 -0.3391  0.3239 -0.2844
18192S        S24996   7.312  11.817  29.732 -0.2211  0.1526 -0.4268
18193S        S24997   4.758   8.554  28.246  0.6004 -0.0201  0.2627
18194S        S24998   4.752   7.632  13.559 -0.3828 -0.0746 -0.4130
18195S        S24999   9.251  12.322  18.236 -0.0200  0.0553  0.0470
18196S        S25000   0.910   0.483  13.022  0.4956 -0.0011  0.0254
18197S        S25001   5.362  11.140  17.913  0.3567 -0.2133  0.1228
18198S        S25002   8.567   1.937  19.415 -0.7542  0.1608 -0.4357
18199S        S25003  12.055   4.888  27.434 -0.4993 -0.1546 -0.0969
18200S        S25004   4.525  11.611  30.721  0.0515  0.2863 -0.6542
18201S        S25005  11.710   0.016  17.834 -0.0427  0.5415  0.5027
18202S        S25006   2.616   9.316  19.295  0.2237 -0.0162 -0.5246
18203S        S25007   1.657   9.740  16.159  0.1368 -0.1289 -0.4723
18204S        S25008   6.925   0.984  24.825  0.0512 -0.0607  0.0420
18205S        S25009   6.924  11.275  25.452  0.1544 -0.0460  0.0819
18206S        S25010   1.640   5.343  15.424  0.1560  0.0694  0.6567
18207S        S25011  10.395   6.305  16.268 -0.5785  0.1081  0.2421
18208S        S25012   3.201   9.402  16.050  0.0320  0.3219  0.3272
18209S        S25013   5.717  11.107  27.584 -0.0702 -0.0354  0.4048
18210S        S25014   7.236   9.755  28.300 -0.6056  0.0820  0.1187
18211S        S25015   8.502   3.240  28.917  0.1498  0.0870  0.2697
18212S        S25016   3.106   5.410  17.842  0.0956 -0.0977 -0.0899
18213S        S25017   5.248   4.348  17.069 -0.0118 -0.2926  0.0612
18214S        S25018   3.023   6.901  12.060  0.0440 -0.1372 -0.4580
18215S        S25019  10.829   8.060  15.717  0.2132  0.2664  0.3651
18216S        S25020  10.338   7.167  20.972  0.1175 -0.2860  0.1714
18217S        S25021   9.893   2.261  22.956 -0.2434  0.0574  0.2840
18218S        S25022   3.054   3.615  19.710 -0.0935  0.0930 -0.0063
18219S        S25023  11.474   1.611  14.897 -0.0554 -0.2830 -0.3917
18220S        S25024   1.386   3.918  24.681  0.0538 -0.1993  0.0354
18221S        S25025  11.475  11.555  16.282  0.1172  0.1120 -0.2907
18222S        S25026   5.786   8.499  17.472 -0.4096 -0.0834 -0.2951
18223S        S25027   1.233   5.804  18.198 -0.2131 -0.0856 -0.4180
18224S        S25028  10.681   5.437  28.310  0.7923 -0.1506  0.9494
18225S        S25029   6.137   8.612  25.655 -0.6852 -0.1316 -0.5920
18226S        S25030   1.493  11.678  26.176 -0.3228 -0.6187 -0.8085
18227S        S25031   8.983   9.618  13.645  0.1320 -0.5462 -0.3125
18228S        S25032   5.683   2.482  25.405  0.0191  0.1198  0.3387
18229S        S25033   5.603  10.241  12.743  0.5225  0.2095  0.1865
18230S        S25034   5.005   8.490  14.275  0.2791 -0.2894 -0.2781
18231S        S25035   2.351   4.527  24.883 -0.3946 -0.5894 -0.6687
18232S        S25036   9.567   6.942  12.094 -0.3542 -0.2436 -0.0420
18233S        S25037   1.617  10.887  27.333  0.2415 -0.1077 -0.1601
18234S        S25038   5.249   2.973  14.604 -0.1006  0.1068  0.3932
18235S        S25039   4.003   0.121  13.816  0.2478  0.3839 -0.0371
18236S        S25040   0.292   1.282  27.483 -0.4331  0.0430  0.5116
18237S        S25041   0.776   0.394  23.690  0.3245 -0.2654 -0.3839
18238S        S25042   6.591   4.305  26.884  0.2131 -0.2010 -0.0337
18239S        S25043   3.744   8.804  18.010 -0.4798 -0.2266 -0.3827
18240S        S25044   9.437   0.228  23.422 -0.4652  0.8448 -0.3354
18241S        S25045   1.533   4.019  17.050 -0.0187 -0.6936 -0.1572
18242S        S25046   4.281   7.479  23.710  0.6022 -0.4170  0.0997
18243S        S25047   1.501   6.911  14.699  0.0662  0.1332 -0.2014
18244S        S25048   1.481   6.726  18.387  0.1013 -0.2432 -0.6317
18245S        S25049   2.014   3.026  12.878 -0.0615  0.0238 -0.2027
18246S        S25050  10.773   7.914  13.804  0.3110 -0.0930  0.1404
18247S        S25051   9.572   5.735  21.141  0.2924  0.7448 -0.1199
18248S        S25052   9.862   5.607  24.372 -0.2171 -0.0857  0.0619
18249S        S25053  11.991  11.538  23.180  0.2174  0.1313 -0.1712
18250S        S25054   6.626   9.633  16.103  0.0260  0.3150  0.1032
18251S        S25055  12.351   3.833  13.979  0.1656  0.5048 -0.8023
18252S        S25056   1.575   7.468  20.316 -0.1900 -0.5477  0.9738
18253S        S25057   8.111  10.385  25.628 -0.0819 -0.1135  0.5907
18254S        S25058   3.386   1.377  18.390 -0.0525  0.4857 -0.4212
18255S        S25059   6.441   8.177  23.419 -0.0235 -0.2766 -0.0166
18256S        S25060   0.539   4.234  18.618  0.0847  0.2673  0.4820
18257S        S25061   6.964   3.723  24.169  0.3395 -0.0606  0.0232
18258S        S25062   7.371   0.260  19.502  0.2616  0.0849  0.3520
18259S        S25063   7.176  11.718  11.634 -0.0369  0.2257 -0.1156
18260S        S25064   0.947  10.253  25.368 -0.7853  0.2860 -0.4630
18261S        S25065   4.228   9.498   6.361  0.0811 -0.2512  0.2273
18262S        S25066  10.976   5.053  29.291  0.5154  0.2009 -0.1920
18263S        S25067  10.612   9.799  18.472  0.7337  0.2262 -0.5124
18264S        S25068   7.987  11.069  19.889  0.4755  0.1919 -0.3324
18265S        S25069  11.908  11.914  33.785 -0.3094 -0.1415 -0.2612
18266S        S25070   7.892   7.895  16.695 -0.1755  0.3366 -0.1606
18267S        S25071   5.799  10.009  26.679  0.1199  0.5501 -0.2296
18268S        S25072   5.833  10.556  14.818 -0.1322 -0.1856 -0.4126
18269S        S25073   5.983  12.141  12.213  0.2791  0.0582  0.0773
18270S        S25074   7.347   3.723   4.008  0.0077  0.1925  0.1185
18271S        S25075   5.133   9.536  18.189  0.2058  0.5218  0.0619
18272S        S25076   1.572   9.321  22.316 -0.3793 -0.4244  0.0183
18273S        S25077   5.952   5.175  20.893 -0.1418  0.2336  0.0472
18274S        S25078   8.862   9.051  17.846 -0.3316 -0.1891  0.2935
18275S        S25079  12.177   3.671  20.888  0.0377 -0.0062  0.3578
18276S        S25080   3.575  12.117  20.337  0.0270  0.2697  0.3315
18277S        S25081   5.939  12.064  22.697 -0.6333  0.3856  0.0068
18278S        S25082   6.757   5.253  24.236 -0.4159 -0.0779  0.3152
18279S        S25083   6.991   5.836  21.066  0.2255 -0.1937  0.1832
18280S        S25084  12.049   2.345  20.308 -0.0107  0.3049 -0.5146
18281S        S25085   1.259  11.128  12.446  0.6002 -0.6370  0.2488
18282S        S25086  11.041   2.746  23.177  0.3101 -0.1870  0.3183
18283S        S25087   7.400  12.268  22.205 -0.5057  0.4307  0.7137
18284S        S25088   1.995   5.577  30.429  0.2543  0.1845  0.3833
18285S        S25089   5.632   6.187  20.663 -0.1680 -0.1985 -0.2015
18286S        S25090   5.553   6.582  24.392 -0.5233  0.3791  0.0780
18287S        S25091   6.275   2.977  27.525  0.0496 -0.6742  0.3780
18288S        S25092   3.146   5.585  13.579  0.0893 -0.1102  0.0915
18289S        S25093   8.542  12.254  21.205  0.5615  0.1719 -0.2218
18290S        S25094   9.190   9.138  26.455  0.5800 -0.0769 -0.5677
18291S        S25095   1.615  11.441  29.885  0.2475 -0.0890 -0.4630
18292S        S25096   9.892   6.477  24.054 -0.0035  0.2885 -0.1865
18293S        S25097  10.366   9.511  32.967 -0.3972 -0.0124  0.1517
18294S        S25098   7.751  10.219  11.745 -0.3785 -0.0888  0.1135
18295S        S25099   9.507   1.397  40.489 -0.4913  0.0797 -0.0144
18296S        S25100   1.381   3.440  27.280 -0.2041  0.2494  0.4359
18297S        S25101   7.451  11.857  30.365  0.0858 -0.4766 -0.1065
18298S        S25102   8.374  10.219  17.777 -0.3704  0.8690 -0.2506
18299S        S25103   1.521   0.821  19.712  0.2116  0.0384 -0.2309
18300S        S25104   9.756   1.121  14.425  0.3179  0.4585  0.1671
18301S        S25105   2.234   8.152  15.742  0.1476  0.2255 -0.6243
18302S        S25106   6.158   6.476  18.315 -0.5774 -0.3341 -0.3371
18303S        S25107  10.766   1.497  15.400  0.4748 -0.2687 -0.2584
18304S        S25108  11.135   5.843  13.019  0.1826  0.0318  0.0455
18305S        S25109   8.061   6.669  25.928 -0.0933  0.5050 -0.6051
18306S        S25110  12.017   5.593  11.857 -0.3154 -0.0072  0.4187
18307S        S25111   1.548   3.192  23.859  0.2074 -0.0797 -0.2075
18308S        S25112  11.042  11.766  19.754 -0.1592  0.0142  0.4503
18309S        S25113  11.283   2.286  25.109 -0.3017  0.2208 -0.1407
18310S        S25114   2.279   7.972  19.129 -0.2767 -0.2484 -0.3885
18311S        S25115   5.408  11.829  20.620 -0.0605  0.0827  0.1473
18312S        S25116   6.902  10.909  20.780  0.1655  0.2756  0.5407
18313S        S25117   6.839   2.375  15.634  0.1682 -0.4748  0.1777
18314S        S25118   9.373   8.188  18.012 -0.2633 -0.0448 -0.3936
18315S        S25119  11.041   2.056  14.202  0.1445 -0.1738 -0.0954
18316S        S25120   2.228   6.259  18.575  0.4789 -0.0824  0.1870
18317S        S25121   9.623  12.212  11.533  0.7355 -0.0832 -0.1212
18318S        S25122   5.615   3.099  12.856 -0.0906 -0.3178 -0.7781
18319S        S25123   6.457   3.384  11.301  0.2624 -0.0891  0.7016
18320S        S25124  10.988   2.152  18.206 -0.4803  0.1544  0.1355
18321S        S25125   4.341  10.012  11.520 -0.0920  0.2732  0.2788
18322S        S25126  10.655   8.712  14.828 -0.6393 -0.1887  0.1302
18323S        S25127   9.416   9.924  26.870  0.3006 -0.3115 -0.0277
18324S        S25128  11.186   0.201  13.468  0.0732 -0.1997 -0.1144
18325S        S25129   7.790   7.975  18.392 -0.1306 -0.1113  0.1614
18326S        S25130   2.949   4.089  27.124  0.2335  0.7075 -0.2826
18327S        S25131  12.007   1.860  32.341  0.4320  0.6573 -0.0201
18328S        S25132   7.476   4.099  16.800 -0.2102 -0.0585  0.3235
18329S        S25133   3.145   7.633  27.062  0.3411  0.3455 -0.2114
18330S        S25134   7.508   3.337  11.322  0.1213 -0.3176  0.0598
18331S        S25135  10.128  11.096  21.929  0.5047  0.4670 -0.0781
18332S        S25136   2.629   9.156  16.796  0.1075  0.3815 -0.1658
18333S        S25137   3.535   5.771  23.168  0.2773 -0.3855  0.1466
18334S        S25138   3.276  12.352  17.667 -0.2585 -0.1491 -0.4294
18335S        S25139   0.347  10.422  18.112 -0.1145  0.9778  0.4395
18336S        S25140  10.616   2.883  23.403  0.0206 -0.2035  0.4593
18337S        S25141  11.968   5.116  15.269 -0.2643  0.1610  0.1791
18338S        S25142   8.902   6.257  13.863 -0.3792 -0.1563  0.0425
18339S        S25143   7.238   5.943  19.689  0.0275 -0.3282  0.4570
18340S        S25144   6.156   1.745  15.443  0.1773 -0.8983 -0.1771
18341S        S25145   8.944   2.990  20.963 -0.1740 -0.1118  0.4844
18342S        S25146   9.374   2.980  17.157  0.5257 -0.3313  0.1381
18343S        S25147   1.050   9.578  24.174 -0.0210 -0.4478  0.3083
18344S        S25148   8.765  12.044  20.304 -0.1300  0.3189  0.2859
18345S        S25149   9.959   2.686  26.355 -0.2071 -0.4726 -0.2098
18346S        S25150   5.012   0.957  27.084 -0.2749  0.7772 -0.0125
18347S        S25151   5.834  11.430  17.173 -0.4301  0.4210  0.1065
18348S        S25152   7.876   0.478  16.726  0.4657 -0.0924 -0.0969
18349S        S25153   6.372   2.148  11.887 -0.5394  0.2802  0.4047
18350S        S25154   3.217   5.148  22.855  0.5061  0.1876 -0.3215
18351S        S25155   6.779   8.809  15.761  0.3660  0.2954  0.2572
18352S        S25156   1.701   8.001  29.995 -0.4234  0.2032  0.2056
18353S        S25157   8.671  11.861  15.966  0.3813 -0.0531  0.3874
18354S        S25158   0.689  10.145  18.364  0.5920 -0.1836 -0.4562
18355S        S25159   9.283   8.707  28.197  0.6022 -0.0868 -0.0710
18356S        S25160   5.315   8.915  22.713  0.3445  0.5139 -0.4091
18357S        S25161   3.067   1.152  20.070 -0.1442 -0.0662  0.1566
18358S        S25162  10.454   0.333  28.142 -0.2307  0.0373  0.1732
18359S        S25163   2.223   9.530  23.455  0.0509 -0.1698 -0.2434
18360S        S25164   0.674   2.359  21.790 -0.3207 -0.2213  0.0799
18361S        S25165   7.833   6.190  18.471 -0.0004  0.1123  0.0869
18362S        S25166  10.372   8.318  30.155  0.1239 -0.0956 -0.3472
18363S        S25167   3.492   4.097  23.287 -0.2626 -0.1432 -0.5560
18364S        S25168   2.423   0.200  14.174 -0.4378  0.0127 -0.1490
18365S        S25169   8.776   9.957  20.967 -0.0503  0.2069 -0.5108
18366S        S25170   1.562   8.067  18.727  0.3933  0.3102 -0.2149
18367S        S25171   3.172   4.447  30.781  0.3591 -1.0745  1.0302
18368S        S25172   6.522   0.751  23.908 -0.1672  0.0698  0.2797
18369S        S25173   2.818   0.515  15.619 -0.2337  0.2396  0.1139
18370S        S25174   2.211  12.342  22.696 -0.3500  0.0777 -0.2270
18371S        S25175   8.796   2.289  24.619  0.1875  0.1846  0.2355
18372S        S25176   2.852   0.947  19.514 -0.2222  0.1241 -0.2910
18373S        S25177   0.418   5.339  24.150  0.3289 -0.2892 -0.9765
18374S        S25178   0.116  12.077  29.440 -0.6284  0.0103 -0.2522
18375S        S25179  11.219   1.613  12.880 -0.2258  0.0318  0.3426
18376S        S25180   7.725   5.112  35.612  0.0704 -0.1718  0.5997
18377S        S25181  10.088   0.088  18.244  0.1183 -0.0842  0.0054
18378S        S25182  11.630   4.848  23.036  0.0794 -0.0122 -0.0878
18379S        S25183   9.362   7.792  11.467 -0.5984  0.4641  0.0072
18380S        S25184   8.830   7.022  15.640 -0.2218 -0.1931  0.1345
18381S        S25185   9.787   4.836  18.607  0.1429  0.2572  0.0920
18382S        S25186   9.344   6.879  19.225  0.0353 -0.1269  0.0156
18383S        S25187   8.179   8.846  20.222 -0.4484  0.1469  0.0550
18384S        S25188   5.422   0.145  26.127  0.2632  0.5301  0.3304
18385S        S25189   1.641   2.480  28.038  0.0964  0.1436  0.3807
18386S        S25190   5.430  10.153  14.470  0.2039  0.0420  0.0923
18387S        S25191   8.561   5.204  13.675 -0.1837  0.0674 -0.1813
18388S        S25192   4.719  11.828  16.899 -0.3148  0.2258 -0.1762
18389S        S25193   1.782   7.898  13.373  0.2660  0.3122 -0.1854
18390S        S25194   8.208  11.077  43.823 -0.0799  0.3482  1.3793
18391S        S25195  10.223  10.286  19.016 -0.1680 -0.0352  0.2554
18392S        S25196  12.222   1.387  41.789  0.4210 -0.4670  0.5602
18393S        S25197   8.444  10.116  27.544 -0.8917 -0.4472  0.3033
18394S        S25198   1.381   4.416  15.539  0.0262  0.3729 -0.1868
18395S        S25199   9.076   9.917  13.166 -0.6523  0.0590 -0.2934
18396S        S25200   4.063   6.340  29.034  0.6673  0.3778 -0.0517
18397S        S25201   3.489   6.885  28.296  0.3536 -0.0077 -0.0797
18398S        S25202   5.798  11.639  28.956 -0.9728 -0.4369 -0.3862
18399S        S25203  10.733   8.848  13.296 -0.1580  0.4837  0.1840
18400S        S25204  12.140   3.889  24.939 -0.2461  0.3961  0.3989
18401S        S25205   5.256   4.295  15.670  0.2940 -0.0045 -0.2953
18402S        S25206   7.652   6.916  13.373  0.1747  0.6034 -0.4749
18403S        S25207   9.955   0.910  31.366 -0.2456 -0.0049 -0.3516
18404S        S25208   7.257   7.160  49.985 -0.0409  0.0258  0.0006
18405S        S25209   4.413   3.945  15.322  0.3153 -0.4269  0.0688
18406S        S25210   8.816   1.000  16.381 -0.3625 -0.4788 -0.2765
18407S        S25211   9.176  10.272  20.783 -0.2216 -0.0481  0.0448
18408S        S25212   2.087   7.747  29.352  0.1877 -0.1658  0.5880
18409S        S25213   1.435   9.201  26.427  0.1514 -0.2297  0.1288
18410S        S25214   6.874   8.916  27.501 -0.0115  0.5060 -0.0911
18411S        S25215   8.642   4.093  21.241 -0.1108  0.1893  0.0517
18412S        S25216  12.137   8.188  23.386  0.2562  0.1436  0.0839
18413S        S25217   4.080   0.865  28.336  0.2238 -0.1222 -0.2863
18414S        S25218   9.797   3.781  24.754  0.8609 -0.3479 -0.1495
18415S        S25219   1.068   8.294  17.499  0.5369  0.2285 -0.2079
18416S        S25220   7.681   8.785  14.628  0.1289 -0.0419 -0.0496
18417S        S25221   3.375   9.318  27.112  0.4338 -0.3433 -0.2138
18418S        S25222   8.826  12.262  13.860 -0.3453  0.1196 -0.1157
18419S        S25223   4.265  11.164  16.135  0.0680  0.0343  0.1924
18420S        S25224  10.615  12.329  26.551  0.1630 -0.4089  0.0602
18421S        S25225   7.505   5.499  18.702 -0.5551 -0.1831  0.0447
18422S        S25226   6.832   2.568  25.901  0.0192 -0.1477 -0.0785
18423S        S25227   5.250  11.003  28.365 -0.4282  0.2353  0.4529
18424S        S25228  12.329   0.573  15.623  0.3561 -0.1079 -0.3266
18425S        S25229   7.419  11.420  15.770 -0.3008 -0.0062  0.2785
18426S        S25230   9.651   7.400  23.761  0.2751  0.1824 -0.2258
18427S        S25231   7.262  11.211  23.293  0.3747  0.3388 -0.0456
18428S        S25232  10.044   6.099  12.026 -0.1581  0.1711  0.1487
18429S        S25233   9.520   8.495  16.304 -0.0903 -0.0580  0.0683
18430S        S25234   0.282   3.838  19.942 -0.2278 -0.2283 -0.1058
18431S        S25235   7.855   4.666  19.196  0.3060  0.0850 -0.0308
18432S        S25236  10.106   1.624  16.091 -0.5049 -0.2144  0.1036
18433S        S25237   8.540   4.672  15.064 -0.0919  0.0151  0.1116
18434S        S25238   5.887   0.220  19.041 -0.2938  0.1112 -0.4273
18435S        S25239   0.276  10.100  15.123 -0.2284 -0.0107 -0.8626
18436S        S25240   5.766   4.239  14.881 -0.6487  0.6748  0.0135
18437S        S25241   6.363   6.085  19.294  0.1183 -0.1759  0.4379
18438S        S25242   9.570   8.535  15.192 -0.0219  0.1624  0.1107
18439S        S25243   7.037   6.114  16.604 -0.1542  0.1545 -0.2223
18440S        S25244  10.737   7.186  24.017 -0.0006  0.3263 -0.2790
18441S        S25245   1.665   7.010  13.767  0.6049 -0.1743 -0.4912
18442S        S25246   5.904   7.538  16.393 -0.1909  0.1973 -0.1291
18443S        S25247   8.895   8.643  18.703 -0.2542 -0.0947  0.2327
18444S        S25248   5.210  10.503  15.217  0.1667  0.1451  0.3473
18445S        S25249   8.586   4.001  26.868 -0.0099 -0.2144  0.0387
18446S        S25250  11.835   0.374   4.315  0.1015  0.2092  0.3808
18447S        S25251   7.168   8.778  29.516  0.6697  0.0554 -0.5042
18448S        S25252   8.419   0.441   0.356  0.1928 -0.0301  0.0721
18449S        S25253  11.734  11.602  20.440  0.0058  0.3666  0.1308
18450S        S25254   4.651   5.078  18.754  0.3149 -0.2887 -0.4043
18451S        S25255   9.442  10.676  30.986  0.5183  0.1208  0.2721
18452S        S25256   6.161   4.703  25.133 -0.0949 -0.5634 -0.5831
18453S        S25257   6.364   0.774  18.697 -0.3784 -0.1612 -0.3376
18454S        S25258   8.950   8.879  14.334  0.3158 -0.0924  0.2723
18455S        S25259   8.460   3.504  19.736  0.0614 -0.1505  0.0910
18456S        S25260   1.345   2.619  26.423 -0.2274 -0.1793 -0.7183
18457S        S25261   8.463   4.719  14.603  0.0536  0.2314  0.4744
18458S        S25262  11.171  10.750  15.815 -0.0581 -0.0130 -0.0858
18459S        S25263   3.721   3.198  13.725 -0.2576 -0.0940  0.0028
18460S        S25264   3.656  12.170  24.276 -0.1604  0.3001  0.1942
18461S        S25265   2.847  11.493  25.696  0.4368  0.0700  0.4881
18462S        S25266  10.455   4.269  11.828 -0.3136 -0.1128  0.4289
18463S        S25267   2.664   7.782  45.311  0.0922 -0.4193 -0.1530
18464S        S25268   9.140   1.219  18.590  0.0610 -0.0807 -0.0357
18465S        S25269   5.830   3.477  30.966 -0.1181 -0.1530 -0.2842
18466S        S25270   3.916   8.629  16.979  0.0662 -0.0907  0.0836
18467S        S25271   2.164  10.357  25.071 -0.0741  0.0059 -0.4437
18468S        S25272   2.427   5.245  25.924  0.2380  0.0739  0.2134
18469S        S25273   7.467   6.324  22.686 -0.2834  0.2300  0.2022
18470S        S25274   5.517   2.617  15.860 -0.4744  0.2864 -0.0050
18471S        S25275   1.370   5.776  24.841  0.1002 -0.0486  0.4108
18472S        S25276   6.136   2.880  14.703  0.2844 -0.0849  0.1993
18473S        S25277   7.492   1.270  31.310  0.0914 -0.4160 -0.0823
18474S        S25278   0.534  11.774  23.760  0.1548  0.2317  0.0351
18475S        S25279   6.039   1.189  15.302 -0.1608  0.0638  0.2292
18476S        S25280   7.412   7.814  12.333 -0.4922  0.1671 -0.0519
18477S        S25281   9.950   4.485  22.258  0.1861 -0.3798  0.3458
18478S        S25282   4.773   3.111  13.615 -0.1905 -0.7544 -0.1582
18479S        S25283   3.527   3.712  19.952 -0.3815 -0.2305 -0.0880
18480S        S25284   5.105   4.787  14.209  0.1059  0.0602  0.1836
18481S        S25285   6.825  11.068  17.318 -0.4796  0.0776  0.0802
18482S        S25286   0.311  10.477  19.310  0.1428 -0.0262 -0.0094
18483S        S25287   3.841  10.115  16.407 -0.0005  0.4992  0.1826
18484S        S25288   5.529   2.595  22.553  0.0008 -0.1727  0.6811
18485S        S25289   1.576   2.315  18.627  0.0017 -0.3265 -0.0168
18486S        S25290   4.645   7.645  30.092  0.1252 -0.4453  0.5485
18487S        S25291   5.547   2.477  34.540 -0.0248  0.1082  0.0460
18488S        S25292  11.180  10.096  27.030 -0.0397 -0.4279  0.2913
18489S        S25293  10.087   0.365  11.637 -0.1918  0.0698  0.5985
18490S        S25294   7.115  11.044  21.247 -0.4092  0.2181 -0.2119
18491S        S25295   2.589   1.027  13.033  0.0612  0.2894 -0.2190
18492S        S25296   9.943   4.520  15.722 -0.0462  0.3511 -0.3587
18493S        S25297   8.406   2.088  18.963 -0.1899 -0.1853 -0.3127
18494S        S25298   9.571   1.625  15.915  0.2351 -0.2811 -0.7196
18495S        S25299   7.178   8.442  17.238 -0.3181 -0.3280 -0.1976
18496S        S25300   8.794   8.258  24.803  0.1241 -0.3159 -0.6124
18497S        S25301   4.030   8.114  20.130 -0.4494  0.0143  0.2020
18498S        S25302   3.111   5.988  19.607 -0.3862  0.3052 -0.2894
18499S        S25303   7.996   3.903  23.745  0.0566 -0.0552  0.0108
18500S        S25304   6.668   7.664  29.495 -0.2083  0.0793  0.0188
18501S        S25305   0.637   1.016  30.333 -0.0974  0.2822 -0.0216
18502S        S25306   1.203   3.929  16.624  0.0789 -0.0777  0.1752
18503S        S25307   7.242  11.612  13.927  0.4604  0.1890  0.3354
18504S        S25308  11.948  12.020  20.313 -0.1858  0.4403 -0.0539
18505S        S25309  10.495   4.645  23.140  0.4591 -0.0905  0.0075
18506S        S25310  10.839   5.261  23.885  0.4602 -0.3866 -0.6115
18507S        S25311  11.878   5.590  19.295 -0.2082 -0.1148 -0.4233
18508S        S25312  12.120   8.006  17.578  0.0667 -0.1423  0.1250
18509S        S25313   1.529   3.574  12.536  0.3859 -0.5065 -0.4523
18510S        S25314   9.221   6.154  32.687  0.0312 -0.3870  0.4349
18511S        S25315   2.766   2.734  27.995  0.6591 -0.0986 -0.4471
18512S        S25316   8.328   5.864  12.768  0.2192  0.3047  0.2678
18513S        S25317   2.156  11.976  13.511  0.0044 -0.0074 -0.3435
18514S        S25318   6.987   6.891  24.473 -0.0858 -0.1079 -0.7912
18515S        S25319   7.403   9.801  22.589  0.6579 -0.4999  0.0599
18516S        S25320   6.418  10.226  25.543 -0.3660 -0.0849  0.1203
18517S        S25321   3.588  11.334  23.379 -0.1804 -0.3856 -0.5038
18518S        S25322   4.133   7.363  15.657 -0.5056  0.1831  0.5457
18519S        S25323   4.326   0.369  20.453 -0.2485  0.4513  0.0774
18520S        S25324  10.518   3.526  18.621 -0.4231 -0.3688  0.0660
18521S        S25325   2.067   1.470  27.807 -0.4388  0.2171  0.2990
18522S        S25326   3.403   4.652  20.824 -0.3943 -0.2097 -0.3863
18523S        S25327   1.169   8.215  17.023  0.0898 -0.2181  0.0466
18524S        S25328  10.578   7.572  16.016 -0.4860 -0.2656 -0.1404
18525S        S25329   7.799   8.998  17.032  0.0596  0.4926  0.2769
18526S        S25330  10.605   2.303  33.728  0.3543 -0.5277  0.1907
18527S        S25331   8.657   9.959  14.055  0.3208 -0.3346  0.4699
18528S        S25332   0.571   4.968  24.453 -0.0489  0.1446 -0.0104
18529S        S25333   6.543   5.617  18.420 -0.4631 -0.0580 -0.1151
18530S        S25334   2.767  12.057  26.054  0.1240 -0.7601 -0.2059
18531S        S25335   8.574   1.815  15.215 -0.1432  0.1340  0.2909
18532S        S25336  12.302   2.024  13.432 -0.3536  0.1164  0.2530
18533S        S25337   1.598   0.926  30.115 -0.2546 -0.2334 -0.0110
18534S        S25338   8.078   9.028  16.488  0.2907 -0.2173  0.2136
18535S        S25339   1.787   3.457  13.251 -0.1263 -0.4978 -0.5341
18536S        S25340   3.863   6.451  24.314  0.3034  0.5967  0.4848
18537S        S25341   1.941   1.178  17.103 -0.3210  0.1155  0.2153
18538S        S25342   1.643   4.250  18.924  0.1765 -0.6116  0.0247
18539S        S25343   3.164   3.519  25.703  0.6220 -0.3611 -0.2014
18540S        S25344   6.258   7.740  24.092  0.2419  0.1886 -0.3381
18541S        S25345   0.503  10.699  24.839 -0.2248 -0.0604  0.1348
18542S        S25346   1.030   6.514  15.331  0.1286  0.4753  0.1517
18543S        S25347   2.582   9.302  27.916  0.4763  0.4021  0.0842
18544S        S25348   6.676   1.228  27.804 -0.2736  0.6294 -0.1844
18545S        S25349   0.858   5.748  22.195  0.1037 -0.3642  0.8199
18546S        S25350  10.816   0.204  24.558  0.6235  0.4664  0.1738
18547S        S25351   7.939   7.630  14.083 -0.4666  0.0154 -0.1843
18548S        S25352   9.617   5.592  25.603  0.0950  0.1341 -0.1441
18549S        S25353  11.608   1.511  11.317 -0.1682  0.4137  0.6591
18550S        S25354  11.051   2.484  13.867 -0.0038  0.0401  0.4084
18551S        S25355   9.454   7.982  18.693 -0.5826  0.0589 -0.3829
18552S        S25356   3.544   7.786   9.753  0.1611  0.0124  0.5784
18553S        S25357   2.307   4.993  18.259 -0.2171 -0.4366 -0.3331
18554S        S25358   8.971   1.850  24.162  0.2161 -0.0285 -0.0851
18555S        S25359  10.243  11.552  30.761  0.1114  0.0493 -0.4082
18556S        S25360   8.884   0.602  26.089 -0.2845 -0.0497  0.3985
18557S        S25361   7.886   7.497  19.105  0.3048  0.2959 -0.4319
18558S        S25362   4.645   0.652  23.328  0.1727 -0.3532 -0.1244
18559S        S25363   8.145  11.699  29.761  0.4277  0.4097 -0.3430
18560S        S25364   2.872   9.056  17.733  0.7430  0.1961 -0.2283
18561S        S25365   8.839   0.354  20.342 -0.5013  0.5476 -0.1864
18562S        S25366   8.209   7.753  19.403 -0.5836 -0.0248 -0.2420
18563S        S25367   2.924  11.481  12.916 -0.4160  0.3401  0.1428
18564S        S25368  11.357  11.228  25.068  0.6640  0.0138  0.1553
18565S        S25369   3.619   3.475   1.961  0.1669  0.1436  0.0335
18566S        S25370  10.327   5.694  31.762  0.2926  0.4143  0.2141
18567S        S25371  11.081   7.469  20.319  0.0395 -0.0595 -0.0435
18568S        S25372   5.987   9.438  16.864  0.3268 -0.1563 -0.0168
18569S        S25373   7.175   3.516  11.801  0.3420 -0.2547  0.2022
18570S        S25374   5.587   7.765  25.508  0.6088 -0.5281 -0.9095
18571S        S25375  11.676   1.387  22.689 -0.3052  0.0140  0.0291
18572S        S25376   9.380   9.193  36.865 -0.0633  0.5290  0.5446
18573S        S25377   6.544   5.760  20.225 -0.3942  0.3804  0.0500
18574S        S25378   9.514   6.932  29.479  0.9518 -0.8153  0.0917
18575S        S25379   7.886   8.670  15.107 -0.4731 -0.3044 -0.3439
18576S        S25380   1.396  11.070  14.272 -0.3669 -0.1119 -0.1969
18577S        S25381   1.133   7.205  31.845 -0.3318 -0.5736 -0.7388
18578S        S25382   7.044   1.401  34.101  0.0832  0.0659  0.4388
18579S        S25383   7.039  10.779  28.255 -0.3033  0.6316 -0.3042
18580S        S25384   1.928   1.158  13.205  0.3999 -0.0337  0.2827
18581S        S25385   0.367   0.434  23.990  0.0955 -0.2434 -0.1780
18582S        S25386   6.857   8.752  16.258 -0.1961  0.1656  0.1552
18583S        S25387  11.535   4.029  20.073  0.0498 -0.3023  0.2884
18584S        S25388  12.134   8.751  18.303  0.2407  0.1296  0.1701
18585S        S25389  10.593  10.874  15.888  0.1482 -0.4500 -0.5147
18586S        S25390   7.047   1.143  21.714  0.3734  0.1308 -0.4571
18587S        S25391   1.510  10.576  30.626  0.2511  0.2519 -0.0978
18588S        S25392   0.262   4.811  21.047 -0.7019  0.5867  0.0611
18589S        S25393   2.793  11.387  20.454  0.1565  0.2089  0.1780
18590S        S25394   9.017   2.892  28.647  0.0440 -0.2622 -0.2558
18591S        S25395   6.631   0.334  20.542  0.0451 -0.4555 -0.0552
18592S        S25396   9.745   6.073  14.858 -0.5934  0.1695 -0.1003
18593S        S25397   4.098   6.621   9.330 -0.2745 -0.4418 -0.4018
18594S        S25398   9.219   4.839  13.396 -0.0209  0.0191 -0.2831
18595S        S25399  10.173   8.318  25.775 -0.0569  0.1268 -0.2354
18596S        S25400   8.974   9.753  12.520 -0.7979  0.2281  0.3593
18597S        S25401   8.293   4.807  16.405  0.1060 -0.1932 -0.3013
18598S        S25402   8.031   2.000   8.979 -0.0488 -0.1046  0.0034
18599S        S25403   8.101   7.517  22.257 -0.0693 -0.0246  0.8632
18600S        S25404   3.478   7.777  15.967 -0.3427 -0.1670  0.1648
18601S        S25405   2.099   8.220  18.740  0.1284  0.0346  0.2034
18602S        S25406   5.367   8.653  31.090  0.3942 -0.8397  0.4111
18603S        S25407   9.260   2.257  24.800 -0.4271 -0.5391  0.3630
18604S        S25408   4.392   8.389  19.992  0.6122 -0.4422 -0.3174
18605S        S25409  10.571   8.838  15.327 -0.0485 -0.0886 -0.2670
18606S        S25410   8.844   5.531  27.837  0.2523  0.1899  0.5630
18607S        S25411   9.045   5.704  18.430  0.3415  0.1986  0.3311
18608S        S25412   5.548   2.276  29.167  0.1707  0.0758  0.8150
18609S        S25413   3.724  11.601  47.478  0.2918 -0.1374 -0.1143
18610S        S25414   2.553   6.592  12.821  0.0287 -0.3963  0.3401
18611S        S25415   8.897   0.963  24.528  0.0036 -0.2560 -0.1733
18612S        S25416   8.510   4.771  18.539 -0.4867  0.1756 -0.0659
18613S        S25417   1.210  10.721  30.224 -0.1779 -0.9227  0.3176
18614S        S25418   2.616   2.564  14.442 -0.0952  0.2449  0.1655
18615S        S25419   3.469   6.843  14.584  0.2481  0.3335 -0.3405
18616S        S25420   7.807   7.866  16.230 -0.0945  0.0288  0.3417
18617S        S25421   4.282   4.067  24.424 -0.6943  0.3337 -0.1880
18618S        S25422  12.332   6.303  25.437  0.0526 -0.5388  0.0604
18619S        S25423   7.929   3.586  26.158 -0.1651  0.6514  0.2093
18620S        S25424   3.401   6.123  17.405  0.1587  0.0722  0.4724
18621S        S25425  10.917   7.581  19.602  0.1629  0.3550 -0.1249
18622S        S25426   6.847   9.442  20.871  0.1375 -0.1145 -0.5263
18623S        S25427   5.279   0.838  11.730  0.0275 -0.2047 -0.1550
18624S        S25428   0.067   0.055  12.848 -0.2647  0.2710  0.0670
18625S        S25429   8.224   1.245  32.219  0.0449 -0.9813 -0.3590
18626S        S25430   9.316   0.019  24.604  0.3082  0.3034  0.7801
18627S        S25431   6.252  11.385  17.742  0.0805 -0.3912  0.1043
18628S        S25432   5.649   3.713  26.380  0.0162 -0.1979 -0.4259
18629S        S25433   4.406   6.509  28.296  0.2985 -0.0282  0.2784
18630S        S25434   6.730   9.512  11.994  0.4455  0.6412  0.1621
18631S        S25435   9.469  10.899  18.034 -0.0471  0.0633  0.2739
18632S        S25436   7.947   2.959  12.049  0.2789 -0.0126 -0.2261
18633S        S25437   6.390   1.196  24.926 -0.4359 -0.2932  0.1326
18634S        S25438   7.701   1.838  15.730 -0.1796  0.1881  0.1156
18635S        S25439   2.141   5.654  17.803 -0.1108  0.0589  0.1338
18636S        S25440   6.371   6.986  20.870 -0.6129  0.2244  0.2042
18637S        S25441  10.982   2.394  24.735 -0.1379  0.3365 -0.2145
18638S        S25442  11.783   3.642  16.360  0.0852 -0.0882  0.2893
18639S        S25443   1.029   9.680  12.267 -0.0353 -0.1219 -0.1583
18640S        S25444   3.263   8.908  30.141  0.0960  0.2993 -0.1703
18641S        S25445  10.954   8.806  28.174  0.7123 -0.0718  0.5534
18642S        S25446   2.359   4.912  26.255 -0.6184  0.0776  0.0382
18643S        S25447   0.967   5.249  26.647 -0.7104 -0.3631 -0.2394
18644S        S25448   9.728   5.625  20.297  0.2327 -0.0436  0.3722
18645S        S25449   4.908   3.728  21.674 -0.0266  0.0958  0.6530
18646S        S25450   2.978   3.820  13.330 -0.1244 -0.2283  0.5208
18647S        S25451   7.764   0.905  26.740 -0.3327  0.1290  0.3981
18648S        S25452   4.110   7.481  13.773  0.1995  0.3940 -0.1515
18649S        S25453   6.227   8.391  17.796 -0.1381  0.2273  0.3529
18650S        S25454   9.568   2.857  25.990 -0.8128 -0.2429  0.3830
18651S        S25455   8.618   5.105  27.792  0.2368  0.6829 -0.1794
18652S        S25456   6.513   9.286  26.073  0.5713 -0.4128 -0.2416
18653S        S25457  10.306   3.527  25.604  0.0728 -0.4124  0.5200
18654S        S25458   6.164   4.095  17.353 -0.0651  0.4232  0.2461
18655S        S25459   9.036   8.082   9.595 -0.0773  0.1101  0.3097
18656S        S25460  10.402   6.525  23.135  0.7515  0.1925  0.1759
18657S        S25461  11.836   2.818  26.150  0.3319  0.5377 -0.2594
18658S        S25462   3.904   6.892  43.338  0.4421 -0.4674  0.4833
18659S        S25463   4.825   6.822  30.230  0.0769  0.0987  0.2348
18660S        S25464  11.983   6.089  13.652 -0.0847 -0.1438  0.0209
18661S        S25465   7.449  11.001  18.654 -0.1892 -0.0317 -0.4256
18662S        S25466   0.816   0.750  17.965  0.6325  0.1868 -0.3256
18663S        S25467   0.285  10.863  23.960  0.3144  0.6315 -1.0688
18664S        S25468   4.780   9.025  20.173  0.4103  0.0669 -0.5975
18665S        S25469   2.001   6.460  25.961  0.2024 -0.0802 -0.1337
18666S        S25470   3.559   2.232  23.684  0.1751  0.1659  0.3533
18667S        S25471   0.973   9.592  18.428 -0.1051 -0.2288 -0.3493
18668S        S25472  11.159   9.855  17.539 -0.2469 -0.0784 -0.4832
18669S        S25473   4.185   6.976  20.147 -0.2651 -0.0480  0.4009
18670S        S25474   5.462   1.181  24.656 -0.0938  0.3306 -0.5167
18671S        S25475   0.273   1.366  24.645  0.0589 -0.3336 -0.1286
18672S        S25476  12.216   7.778  19.600  0.2629  0.2438  0.1953
18673S        S25477   9.546   3.854  28.988  0.2595 -0.2029  0.5369
18674S        S25478   2.457   5.786  16.818 -0.1940  0.3906  0.0872
18675S        S25479  12.310   9.918  24.394 -0.3070  0.2509  0.5244
18676S        S25480   5.074   2.288  18.964 -0.3105 -0.4316 -0.2543
18677S        S25481  10.824   1.468  21.651  0.2064  0.6033 -0.1780
18678S        S25482   3.238  11.904  13.669 -0.2900  0.2183  0.0280
18679S        S25483  10.372   1.300  12.500  0.0871  0.4895 -0.0352
18680S        S25484   3.429   4.739  27.687 -0.2106 -0.0236  0.5006
18681S        S25485   6.198   9.254  29.129  0.1502 -0.9128  0.0656
18682S        S25486   7.070   4.144  23.207  0.3129 -0.3850 -0.5332
18683S        S25487   5.853   1.187  25.031  0.7284  0.1532  0.5247
18684S        S25488   1.172  11.079  28.031 -0.2703  0.5572  0.2739
18685S        S25489  12.070   4.845  12.533  0.2825 -0.2130  0.2242
18686S        S25490   1.501  11.582  23.123 -0.4534 -0.4643  0.3540
18687S        S25491   1.134   1.802  27.648 -0.0670 -0.3344  0.0112
18688S        S25492   9.101   9.689  18.188 -0.0958  0.3691  0.2121
18689S        S25493   8.693   6.528  11.694  0.6543 -0.0307 -0.4105
18690S        S25494  11.466   2.596  15.190 -0.0555 -0.0698  0.0628
18691S        S25495  10.114   9.103  14.078  0.4047  0.2269  0.1135
18692S        S25496   9.781   7.941  23.615  0.8456 -0.3084  0.4052
18693S        S25497   1.112   6.123  29.610 -0.1174  0.6805 -0.4003
18694S        S25498   6.105   8.543  17.043  0.2415 -0.0385 -0.4233
18695S        S25499   5.032   4.592  17.841 -0.6207  0.6054 -0.0023
18696S        S25500   3.114   9.561  30.450 -0.3055  0.3855 -0.2766
18697S        S25501  10.127   7.375  18.158  0.4529  0.2076  0.4278
18698S        S25502  11.727   1.350  14.553 -0.1808  0.1672 -0.1468
18699S        S25503  10.370  11.370  20.212 -0.3733  0.1275  0.1222
18700S        S25504  10.939   6.870  20.150 -0.0220  0.4956 -0.3660
18701S        S25505  10.362   5.201  14.330  0.0847 -0.2660 -0.5050
18702S        S25506   6.724   1.771  27.981  0.2602  0.0934 -0.2582
18703S        S25507   9.042   0.891  24.021 -0.5104 -0.0338 -0.7194
18704S        S25508   6.909  11.951  15.062  0.3530 -0.1608  0.0733
18705S        S25509   7.682  10.743  22.711 -0.6597 -0.2872  0.0237
18706S        S25510   8.244   4.862  26.371 -0.4384 -0.0634 -0.1402
18707S        S25511   5.815  10.967  21.195 -0.2419 -0.4217  0.4765
18708S        S25512   7.570   5.156  24.927 -0.1554 -0.1740  0.3073
18709S        S25513  10.640   8.273  24.219 -0.3653 -0.4663 -0.0599
18710S        S25514   1.579   5.525  11.737  0.5359  0.0556 -0.1558
18711S        S25515   8.088   2.272  29.755 -0.1725 -0.1971 -0.0530
18712S        S25516   3.573   0.760  23.644  0.1390 -0.0842  0.0162
18713S        S25517   6.388   1.592  30.659  0.0798  0.2393  0.5138
18714S        S25518   8.851   0.221  17.988  0.5143  0.0507  0.4682
18715S        S25519  11.250   6.812  29.792  0.4727  0.6297  0.2293
18716S        S25520   5.823   6.561  20.335  0.4875  0.1490  0.5500
18717S        S25521   8.643   2.987  19.716 -0.0531 -0.3006  0.1366
18718S        S25522  10.448   9.775  30.643 -0.2439 -0.1594 -0.4363
18719S        S25523   7.222   8.143  12.040 -0.0764 -0.5781  0.5001
18720S        S25524   3.961   3.131  20.631 -0.6051 -0.2923  0.6567
18721S        S25525   5.281   5.521  19.810  0.2133  0.0521  0.0616
18722S        S25526   5.873   3.256  23.863  0.0767  0.1658 -0.3136
18723S        S25527  10.726   7.017  26.828 -0.3484  0.2007 -0.5805
18724S        S25528   8.291   2.683  14.782 -0.1770 -0.3175 -0.0381
18725S        S25529   9.725  10.081  17.540  0.2151 -0.5423  0.1204
18726S        S25530  11.605   4.151  29.677 -0.2577  0.2059 -0.0515
18727S        S25531   8.979   1.548  19.437 -0.0548  0.0441  0.2658
18728S        S25532   1.082   2.684  12.187  0.1009  0.0690  0.3161
18729S        S25533   6.490   3.884  15.529  0.2741 -0.0156  0.0529
18730S        S25534   2.297   1.400  11.584  0.1991 -0.5294 -0.5275
18731S        S25535   6.986  11.724  49.678  0.1603  0.3890  0.1495
18732S        S25536   7.348   0.088  17.310 -0.3099 -0.5074  0.0435
18733S        S25537   9.480   3.030  15.516  0.0285 -0.2274 -0.1048
18734S        S25538   1.375  10.058  25.048 -0.0081 -0.1670  0.5079
18735S        S25539   3.401   9.177  17.962  0.1488  0.5851 -0.0213
18736S        S25540  12.319   6.671  14.379 -0.2446 -0.1361  0.2036
18737S        S25541   0.250   1.932  30.710  0.3069  0.4409  0.7632
18738S        S25542  10.540   0.836  28.194  0.4776 -0.2134 -0.2641
18739S        S25543   5.795   5.652  22.488 -0.0110  0.3861 -0.1017
18740S        S25544   7.094   0.564  11.101  0.2908 -0.2483  0.2268
18741S        S25545   4.058   9.336  20.955  0.2793 -0.6788 -0.0225
18742S        S25546   5.240  10.754  28.788  0.7952 -0.2018  0.2244
18743S        S25547   9.282   5.275  12.448  0.2251 -0.3543 -0.2939
18744S        S25548   2.236   1.859  14.448  0.2496  0.2684  0.2878
18745S        S25549   6.786   7.807  18.352  0.0367 -0.0984 -0.1762
18746S        S25550  11.142   2.986  16.727  0.2326 -0.3946 -0.2540
18747S        S25551   8.005   7.198  17.150 -0.8158 -0.4185  0.0018
18748S        S25552   8.601  11.596  29.541  0.0775 -0.2158 -0.0671
18749S        S25553   0.650   9.989  23.355  0.4114  0.0354 -0.0641
18750S        S25554   6.598   2.081  28.513  0.2066 -0.0452  0.1035
18751S        S25555   3.879   2.679  23.948  0.3512 -0.0957  0.3924
18752S        S25556  10.295   9.326  15.360 -0.3219  0.2421 -0.2316
18753S        S25557   1.652   7.344  11.574  0.2942 -0.0154  0.2949
18754S        S25558  12.199   5.422  21.766  0.1067 -0.1350  0.5369
18755S        S25559  10.520   7.538  15.048  0.0383  0.2650 -0.1167
18756S        S25560   0.587   2.414  18.621 -0.2395  0.0028  0.2301
18757S        S25561   8.403   3.565  11.752 -0.1875  0.2266  0.1465
18758S        S25562  11.938   9.163  12.579  0.3827  0.2032 -0.1989
18759S        S25563   6.220  11.774  27.923  0.0823  0.0494  0.4643
18760S        S25564  11.341   5.474  15.110  0.2826  0.2363  0.4902
18761S        S25565   8.149   5.569  22.766  0.0342  0.3012 -0.6584
18762S        S25566   8.958   1.733  12.389  0.6515 -0.0183 -0.3406
18763S        S25567  10.408   4.409  22.037  0.4450 -0.2956  0.4845
18764S        S25568   3.219   6.709  34.832  0.3048 -0.3688  0.0807
18765S        S25569   4.279   2.403  25.856  0.5285 -0.4081  1.0992
18766S        S25570   5.776   1.029  21.443 -0.3268 -0.0909  0.0032
18767S        S25571   7.203   4.784  28.405  0.2912 -0.0432 -0.0216
18768S        S25572   6.954   8.324  27.910 -0.3930  0.1987  0.1765
18769S        S25573   3.454  10.142  21.693  0.1306 -0.1067 -0.2087
18770S        S25574   8.260   1.218  30.134 -0.4427 -0.0791  0.3577
18771S        S25575   0.065  11.886  14.651 -0.0406 -0.0514  0.0807
18772S        S25576   5.831  11.106  20.720 -0.1309 -0.0609  0.1817
18773S        S25577  10.529   7.386  18.484  0.1816  0.4737  0.2521
18774S        S25578   9.971   7.549  20.941 -0.5423 -0.0633 -0.3283
18775S        S25579  10.601   6.315  11.388  0.3393  0.5380 -0.1609
18776S        S25580   2.826   7.235  15.542  0.2807  0.2726  0.3729
18777S        S25581   9.753   4.220   8.949  0.0237  0.1293  0.1464
18778S        S25582   3.458   4.729  14.800 -0.2948  0.0687  0.1362
18779S        S25583   1.979   8.468  13.959 -0.3558  0.2281  0.0137
18780S        S25584   6.655   4.759  13.908 -0.5812 -0.1542 -0.1601
18781S        S25585  10.179   3.187  18.304  0.1870  0.5547 -0.2044
18782S        S25586   9.674   5.797  32.348 -0.2219 -0.5882  0.3071
18783S        S25587   5.505   8.923   2.234  0.0885  0.1035  0.3139
18784S        S25588  10.096   2.698  31.386  0.1811  0.5812 -0.3089
18785S        S25589   1.977  10.468  17.752 -0.2168 -0.3152  0.0432
18786S        S25590  10.149   5.699  31.272 -0.1061  0.2848  0.3353
18787S        S25591   0.111   3.122  13.661  0.1094  0.2431 -0.2202
18788S        S25592   7.187  10.121  13.488 -0.4567  0.4468 -0.0522
18789S        S25593   7.762   6.646  13.782  0.2430  0.5780 -0.1364
18790S        S25594   7.274   4.962  26.628 -0.1645  0.0125  0.0057
18791S        S25595   7.502   8.759  17.973  0.5826 -0.0823 -0.1563
18792S        S25596  10.918   7.951  23.327  0.0834  0.4164 -0.3841
18793S        S25597   4.115   0.780  27.427  0.4906  0.2905  0.0274
18794S        S25598   2.071   0.282  18.871 -0.3704 -0.2548  0.2285
18795S        S25599   3.488   9.441  27.600  0.4849 -0.1827  0.4178
18796S        S25600  10.769   2.030  17.104  0.0665  0.2288 -0.4032
18797S        S25601   0.971   1.398  13.924  0.2273 -0.3002 -0.0045
18798S        S25602   3.557   1.100  16.558  0.2093  0.0341  0.5610
18799S        S25603  11.761   4.429  13.289 -0.2951 -0.1839 -0.6448
18800S        S25604   3.897   5.025  13.362  0.0373  0.1725 -0.1812
18801S        S25605  10.267  11.557  24.564 -0.1881  0.4524  0.3013
18802S        S25606   7.252   5.991  12.983  0.5243 -0.0056 -0.3407
18803S        S25607   4.586   7.285  21.704 -0.6223 -0.0044  0.1581
18804S        S25608   9.188   7.504  27.079  0.5480 -0.3327 -0.4758
18805S        S25609  11.336   0.038  32.362  0.1082 -0.0056  0.4735
18806S        S25610   6.079   7.525  17.379 -0.1155 -0.3317  0.0516
18807S        S25611  11.503  10.994  25.541 -0.5113 -0.4613  0.1308
18808S        S25612  10.525   0.794  14.267 -0.3528  0.3134  0.1831
18809S        S25613   3.357   1.271  28.788  0.3836 -0.5028 -0.0376
18810S        S25614   4.789  12.071  29.008  0.5279  0.2255 -0.5036
18811S        S25615   6.211   0.744  15.158  0.4069 -0.1303 -0.0230
18812S        S25616  11.483   1.796  24.128 -0.6489  0.0501  0.4495
18813S        S25617   9.963   7.678  24.718  0.1819  0.3665  0.0103
18814S        S25618   3.898  11.722  11.114  0.3736 -0.0391 -0.5421
18815S        S25619   6.590   1.360  13.719 -0.0518 -0.0402  0.3552
18816S        S25620  10.607   2.821  19.282 -0.0025 -0.1620 -0.1174
18817S        S25621   0.109   8.400  16.724 -0.1481 -0.1928 -0.0425
18818S        S25622   9.772   3.362  25.772 -0.0087 -0.1320  0.0918
18819S        S25623   8.119   2.467  13.574  0.0697 -0.2125  0.5418
18820S        S25624  10.941  11.153  19.756 -0.0173  0.0800  0.1171
18821S        S25625   4.804   7.799  18.942  0.2953 -0.0792  0.0187
18822S        S25626  10.266  11.185  22.541  0.1055  0.3901  0.0539
18823S        S25627   5.981   0.756  23.988 -0.3789 -0.2320 -0.0016
18824S        S25628  10.713   3.027  18.791 -0.1061 -0.0596  0.0087
18825S        S25629  10.760   0.377  26.068  0.4289 -0.4458  0.3396
18826S        S25630   1.856   1.767  26.638  0.1269  0.6281 -0.3011
18827S        S25631  10.784  11.031  26.474  0.4500  0.0877 -0.0421
18828S        S25632   6.379   2.180  16.903  0.0401  0.3768 -0.3008
18829S        S25633   7.936   4.892  12.179 -0.2986 -0.0603  0.2333
18830S        S25634   5.131  12.163  16.653 -0.1023 -0.3019  0.0084
18831S        S25635   9.001   4.630  28.810  0.3436 -0.3167 -0.4717
18832S        S25636   4.278   0.541  29.194 -0.6206  0.1113  0.1963
18833S        S25637   3.794   8.988  23.578 -0.1309  0.2030  0.0434
18834S        S25638   3.604   4.821  18.991 -0.1843  0.3887  0.1286
18835S        S25639  11.658   9.281  11.470 -0.2344 -0.0458 -0.0512
18836S        S25640   3.540   8.590  31.532 -0.1232  0.1285 -0.1301
18837S        S25641   2.091   7.874  21.836 -0.2591 -0.5166 -0.4815
18838S        S25642   5.399  11.350  11.697  0.1339  0.0170 -0.3648
18839S        S25643   0.081   4.205  20.311 -0.1802  0.3320  0.1623
18840S        S25644   7.492   2.033  17.166  0.3288  0.0226 -0.2347
18841S        S25645   4.202  10.372  28.017 -0.0376 -0.2489  0.5919
18842S        S25646   6.103   1.922  17.426 -0.1757  0.0404 -0.9178
18843S        S25647  10.612   1.210  20.241 -0.5695  0.3039 -0.2710
18844S        S25648  10.164   8.185  22.694  0.1906  0.1040  0.0023
18845S        S25649   5.002   8.458  27.837  0.1654 -0.2543  0.3158
18846S        S25650  10.604  12.023  24.491 -0.1777  0.0193 -0.3963
18847S        S25651   5.331   4.658  11.868  0.0162 -0.0275 -0.4759
18848S        S25652   3.689   5.953  28.385  0.2005 -0.0392 -0.1744
18849S        S25653   9.079  11.248  14.078  0.0931 -0.5019  0.3924
18850S        S25654   2.904   5.263  25.290  0.0337  0.0376 -0.1591
18851S        S25655   1.729   8.724  19.450 -0.1530 -0.1029 -0.0997
18852S        S25656   2.837   3.906  11.906 -0.5881 -0.0993 -0.0380
18853S        S25657   3.854   7.246  28.202 -0.3597 -0.2335 -0.6284
18854S        S25658   1.892   0.221  26.040 -0.1844  0.4267  0.3646
18855S        S25659   9.174   2.581  27.689  0.1117  0.0163  0.1886
18856S        S25660   5.675  10.608  20.617 -0.0346 -0.2064 -0.1320
18857S        S25661  10.164  10.622  12.493  0.0755 -0.0045  0.1243
18858S        S25662   2.206   0.338  15.588  0.7047  0.2882 -0.5651
18859S        S25663   8.571   2.382  12.737  0.4655 -0.7405 -0.1224
18860S        S25664   5.108   9.185  29.672 -0.2074  0.5046 -0.2710
18861S        S25665   8.138   9.449  28.085  0.0609  0.3155 -0.1476
18862S        S25666   4.333  11.370   4.449  0.0688 -0.0699  0.4783
18863S        S25667   8.374   0.296  24.569  0.5266 -0.4422  0.0083
18864S        S25668   1.199   5.342  27.118  0.1116  0.9521 -0.1730
18865S        S25669   6.122   9.916  31.618 -0.0271 -0.5024  0.2078
18866S        S25670   5.931   6.680  17.696 -0.0084 -0.5536  0.1055
18867S        S25671   5.112   7.494  30.257 -0.3557  0.2372 -0.6106
18868S        S25672   8.525   6.858  25.140  0.4757 -0.9653 -0.4471
18869S        S25673   8.244   3.376  41.546  0.1541  0.2981  0.3899
18870S        S25674  10.832   3.871  18.422  0.0251  0.3156 -0.4498
18871S        S25675   2.304   2.706  27.228  0.1054 -0.0025 -0.1302
18872S        S25676   5.804   0.300  24.900 -0.0650  0.2846  0.0095
18873S        S25677  10.219   6.089  24.935  0.2568  0.0175  0.4389
18874S        S25678   2.967   3.769  14.178  0.4759 -0.0321 -0.2499
18875S        S25679  10.230   6.561  48.236  0.0338  0.1483  0.1416
18876S        S25680   5.198   1.629  22.216  0.2128  0.4438 -0.1123
18877S        S25681   5.031   6.026  22.828  0.7654 -0.0860  0.1089
18878S        S25682   1.138  10.095  17.443  0.4733 -0.6546  0.4589
18879S        S25683   7.519   9.124  18.349 -0.4153  0.1660 -0.3577
18880S        S25684   3.127   9.421  23.009  0.3724 -0.0935  0.8201
18881S        S25685   5.485   6.110  12.991  0.0481  0.1344 -0.4461
18882S        S25686  10.986   5.723  23.659  0.3016 -0.1836  0.4254
18883S        S25687   3.486   4.204  11.558 -0.8602  0.2215  0.2390
18884S        S25688   8.936  11.006  20.247  0.2068 -0.1166 -0.0990
18885S        S25689   9.937   2.078  21.156 -0.3699 -0.1989  0.6665
18886S        S25690   3.996   6.990  13.780  0.1927 -0.5413  0.0527
18887S        S25691   9.462   7.049  27.026 -0.3534  0.0735  0.0093
18888S        S25692   6.649   8.195  17.977  0.0732 -0.1459 -0.0730
18889S        S25693   9.319   7.792  23.603  0.3302 -0.5077 -0.0418
18890S        S25694  10.603   5.970  13.811  0.2750 -0.4106  0.0517
18891S        S25695   6.758   6.099  25.144  0.2465  0.2342 -0.2742
18892S        S25696   0.252   8.922  13.262 -0.2301 -0.1896 -0.2185
18893S        S25697   6.201   7.244  15.047  0.0052  0.2268 -0.3802
18894S        S25698   4.487   4.757  14.955 -0.2711  0.3705  0.5578
18895S        S25699  12.064   4.936  31.568 -0.4469  0.1695 -0.0223
18896S        S25700   3.275   3.213  39.060  0.2452 -0.3032  0.2234
18897S        S25701   3.653   5.090  28.021  0.5037 -0.3635 -0.5584
18898S        S25702   5.473  12.319  13.430 -0.0238 -0.1491  0.3716
18899S        S25703   7.697   5.997  19.456  0.1215  0.5109  0.1550
18900S        S25704   8.029   0.842  32.525 -0.3528  0.2851  0.5887
18901S        S25705  10.452   7.645  11.568  0.2968 -0.3791 -0.4288
18902S        S25706   9.055   2.055  11.086 -0.0742  0.0088 -0.0871
18903S        S25707   3.804   5.683  23.659  0.2624  0.7144 -0.1124
18904S        S25708   6.514  10.932  24.973 -0.5047  0.1124 -0.1821
18905S        S25709   3.281   7.225   9.070 -0.2481 -0.0888  0.2199
18906S        S25710   3.926   0.198  29.263  0.1174  0.1370  0.2147
18907S        S25711   6.699   1.892  13.658  0.0394  0.0061 -0.1640
18908S        S25712   2.853   5.797  18.030  0.0231  0.1430 -0.0029
18909S        S25713  10.076  10.959  30.925  0.2216 -0.5479 -0.4303
18910S        S25714   7.763   2.512  14.013  0.4172  0.2247 -0.1675
18911S        S25715   9.046   7.015  18.461 -0.3139 -0.2793  0.2012
18912S        S25716   7.577   2.765  29.124 -0.0643  0.3589 -0.1257
18913S        S25717   3.492   9.744  22.187  0.3072 -0.4213  0.1652
18914S        S25718   9.489   0.972  24.787  0.0054  0.1164  0.3284
18915S        S25719   1.430   9.753  32.095  0.4410 -0.3568  0.1118
18916S        S25720   4.683  10.697  17.385 -0.2772 -0.4249  0.3556
18917S        S25721  11.173   7.202  14.002  0.0370  0.0958  0.2202
18918S        S25722  10.613   0.692  30.060 -0.3109  0.0138 -0.3042
18919S        S25723  11.695  11.072  27.259  0.3471  0.2174  0.6156
18920S        S25724   3.023  11.776  27.474  0.5063 -0.1589  0.4052
18921S        S25725   6.305   9.173  12.813 -0.2018  0.4505  0.0058
18922S        S25726  10.553   6.701  21.212 -0.5321  0.0894 -0.6434
18923S        S25727   5.800   2.590  37.070 -0.4766 -0.2396  0.7495
18924S        S25728   3.930   6.809  17.449  0.0029 -0.0031 -0.1166
18925S        S25729  10.353   4.813  27.623  0.2101 -0.4827  0.2259
18926S        S25730   0.115   0.199  14.790  0.1412 -0.5049 -0.0525
18927S        S25731   7.541   2.215  19.269  0.4328  0.0727 -0.0785
18928S        S25732   6.529   0.593  24.772  0.8001  0.3974  0.1628
18929S        S25733   9.842   2.023  25.652  0.1517  0.0764 -0.0017
18930S        S25734  12.011   2.828  12.204  0.0255  0.6041 -0.3220
18931S        S25735   6.794   8.299  24.034  0.0254  0.1265  0.3398
18932S        S25736   6.123   7.142  16.058  0.2129 -0.0390 -0.3667
18933S        S25737  10.233  11.453  31.251  0.3138  0.0847 -0.6674
18934S        S25738   6.765   3.029  13.409  0.1770 -0.1533 -0.0295
18935S        S25739   3.617  11.672  10.033  0.2360 -0.0671  0.2860
18936S        S25740   4.507   0.809  22.170  0.1721  0.6683 -0.4173
18937S        S25741   7.243  11.601  30.881 -0.5757  0.1038  0.1337
18938S        S25742  10.336   2.262  19.343 -0.3057  0.1412  0.0639
18939S        S25743   8.312  10.786  25.282  0.3286  0.8145 -0.0968
18940S        S25744   7.533   3.602  17.104 -0.2721 -0.0874 -0.2666
18941S        S25745   9.323   4.216  13.779  0.1582  0.0576  0.0778
18942S        S25746   5.319   5.020  20.151  0.0176 -0.0530  0.3610
18943S        S25747   6.247  10.535  18.608  0.0229 -0.0764  0.6126
18944S        S25748   0.265   3.609  27.369  0.0958 -0.2326  0.0927
18945S        S25749  11.724   0.622  28.479 -0.1018 -0.7963 -0.1747
18946S        S25750   3.076   4.487  13.436 -0.2992  0.4326 -0.0537
18947S        S25751   8.976   8.714  12.457  0.1701 -0.1916  0.1148
18948S        S25752   4.934  12.093  25.584 -0.4643  0.0737  0.5792
18949S        S25753   1.564   8.723  13.963  0.1270  0.1047 -0.2661
18950S        S25754   4.532   2.104  17.805  0.4420  0.0904 -0.0769
18951S        S25755   6.968   8.256  23.398  0.1155  0.1373 -0.3100
18952S        S25756   3.433   0.123  20.730 -0.5970  0.3537  0.1749
18953S        S25757   1.682  10.906  19.367  0.1943  0.2313 -0.0578
18954S        S25758   8.775   5.644  23.677  0.2074  0.3237  0.3108
18955S        S25759   5.408   9.953  24.436 -0.5067  0.3601  0.8464
18956S        S25760   6.565  10.851  16.933 -0.0362 -0.1187 -0.6419
18957S        S25761   0.342   1.359  20.756 -0.1938 -0.3700 -0.0713
18958S        S25762   2.183  10.884  14.313  0.1768  0.9089 -0.3073
18959S        S25763   8.188   6.267  27.326  0.2424  0.0606 -0.2530
18960S        S25764   4.165   9.072  21.367  0.0073 -0.2631 -0.3324
18961S        S25765  11.897   9.108  26.404  0.3991  0.3158 -0.3584
18962S        S25766   4.343   5.146  21.504 -0.1421 -0.1819 -0.0436
18963S        S25767   2.365   8.537  19.952 -0.1061  0.1382  0.2212
18964S        S25768   7.610   8.318  21.334 -0.0015  0.0989  0.4107
18965S        S25769   8.537   4.633  11.382 -0.1392 -0.0783  0.0030
18966S        S25770   5.326   8.614  17.122  0.0059 -0.1061  0.2813
18967S        S25771   4.728   7.309  18.288  0.4456  0.0951 -0.2990
18968S        S25772   5.490   8.358  14.419  0.1169 -0.2112  0.3137
18969S        S25773   4.599   7.643   1.420 -0.0003 -0.0067 -0.2081
18970S        S25774   6.835   4.636  18.265 -0.6126  0.1976 -0.1387
18971S        S25775   9.657   1.842  15.247 -0.2519  0.1269  0.2202
18972S        S25776  12.008   9.350  22.657  0.6280  0.0622 -0.3381
18973S        S25777  10.961   2.532  18.964  0.5717 -0.1059  0.0920
18974S        S25778   4.518   5.795  25.485 -0.5214 -0.0710 -0.3135
18975S        S25779   0.351   8.409  28.735 -0.1892 -0.8254 -0.8775
18976S        S25780   4.577   0.862  24.132  0.4209 -0.0954  0.2964
18977S        S25781   8.210   9.129  13.858  0.6186  0.3851  0.0390
18978S        S25782   3.623   0.306  13.031  0.0003  0.3937  0.2221
18979S        S25783  10.600   9.515  24.649 -0.1548  0.0067  0.0099
18980S        S25784   3.743  12.363  13.404 -0.1164 -0.1370 -0.2014
18981S        S25785   9.674   4.191  22.731  0.0474 -0.1253 -0.3877
18982S        S25786  11.883   0.772  12.725 -0.1148  0.4197  0.1404
18983S        S25787   8.384   6.878  11.967 -0.1961  0.1468 -0.3149
18984S        S25788   2.805   6.290  19.874  0.4288  0.0695 -0.0390
18985S        S25789   9.037   0.752  29.500  0.0305 -0.6903 -0.0082
18986S        S25790   9.807   6.248  32.585 -0.3675  0.1726 -0.3111
18987S        S25791   9.920   5.356  30.171 -0.1638 -0.0858  0.6207
18988S        S25792   2.080   5.534  20.549 -0.3409  0.2014 -0.6510
18989S        S25793   1.040   4.873  29.854 -0.2994  0.3270 -0.4435
18990S        S25794   8.280   8.809  22.706  0.3570  0.5135 -0.1247
18991S        S25795  10.412   0.858  18.902  0.2790 -0.3548 -0.2643
18992S        S25796   6.320   5.828  29.007 -0.1127  0.4651  0.2073
18993S        S25797   7.052  10.592  27.552  0.0065  0.2327 -0.2780
18994S        S25798   6.172   8.282  21.203  0.0979 -0.1571 -0.1630
18995S        S25799  10.780   9.246  11.911 -0.0048  0.4669  0.0913
18996S        S25800   4.952   4.912  18.266  0.0359  0.1070 -0.2535
18997S        S25801   2.901   1.804  18.802  0.2783  0.2044  0.2037
18998S        S25802   3.625   6.751  18.821  0.0239  0.0604  0.4120
18999S        S25803   8.294   9.688  29.741  0.2935 -0.1492 -0.1301
19000S        S25804   5.733   2.547  12.746  0.2534 -0.6107  0.1164
19001S        S25805  10.874  11.934  26.722 -0.2177  0.0116  0.2654
19002S        S25806   6.170   9.605  28.244  0.5651 -0.1364 -0.2015
19003S        S25807  10.154   9.343  29.073  0.1687  0.0807  0.3845
19004S        S25808   9.348   1.552  29.653 -0.5002 -0.0321 -0.2789
19005S        S25809   1.942   8.071  18.272 -0.6495 -0.2079  0.1949
19006S        S25810  10.082   2.728  13.862 -0.3230  0.0991 -0.1548
19007S        S25811   9.985   4.919  12.733  0.1120  0.0441 -0.0858
19008S        S25812   8.481   5.936  26.583 -0.3704  0.2637 -0.0143
19009S        S25813   5.572   7.568  23.434  0.0545  0.1872 -0.4219
19010S        S25814  11.357   1.206  23.052  0.4017  0.3044 -0.4947
19011S        S25815   9.552   6.879  22.661  0.0965 -0.3997  0.4880
19012S        S25816   8.602   3.231  30.397 -0.9327  0.4206  0.5109
19013S        S25817   5.457   4.202  23.690  0.9264  0.1048 -0.1426
19014S        S25818   0.790   8.419  24.982  0.1240  1.2411 -0.5468
19015S        S25819  11.720  11.930  11.140  0.7088  0.2288  0.1162
19016S        S25820  10.076   2.823  14.803 -0.4903  0.4525 -0.0263
19017S        S25821   4.876  10.066  23.719  0.4102 -0.7381 -0.3794
19018S        S25822   1.092  11.314  17.803  0.4375  0.2997 -0.1967
19019S        S25823   1.832   0.152  29.565  0.5626  0.0269  0.2271
19020S        S25824   4.703   9.233  18.013 -0.1717 -0.6091 -0.1238
19021S        S25825   9.670   8.913  26.613  0.0464 -0.4821 -0.3325
19022S        S25826  10.924   5.593  25.501 -0.3062  0.1518 -0.2806
19023S        S25827   7.026   3.575  15.605  0.1086  0.6890 -0.2137
19024S        S25828   5.834   4.878  14.674  0.2822  0.2702 -0.0609
19025S        S25829  10.337  11.333  13.085 -0.1302  0.1978  0.2564
19026S        S25830   3.139  10.409  30.195  0.1185  0.1002 -0.3010
19027S        S25831   4.017  12.022  18.048 -0.2033  0.2261  0.3649
19028S        S25832   7.794  12.030  31.976 -0.1953 -0.3251 -0.3806
19029S        S25833   8.417  10.417  31.786  0.7008  0.5183 -0.1628
19030S        S25834   8.449   6.956  14.619  0.1212 -0.1450  0.0767
19031S        S25835   8.409   5.584  13.954 -0.2542 -0.3066  0.3587
19032S        S25836   1.590   1.161  27.832  0.2159 -0.3327 -0.0213
19033S        S25837  10.456   4.105  15.983  0.2170  0.1134  0.2384
19034S        S25838   3.444   6.591  40.812 -0.0722 -0.2125  0.0981
19035S        S25839  10.432   0.399  12.763 -0.1407  0.1957  0.6580
19036S        S25840   9.723   0.231  22.348 -0.0148 -0.0029 -0.3307
19037S        S25841   0.740   4.099  13.169  0.1681  0.3474 -0.6967
19038S        S25842   1.254  10.585  21.415  0.2875 -0.2597 -0.6160
19039S        S25843  12.155   7.036  29.153  0.0098  0.0115 -0.6701
19040S        S25844   8.676   1.112  15.678  0.0747  0.5131 -0.2257
19041S        S25845   9.503  11.581  23.158 -0.4584 -0.3217 -0.1273
19042S        S25846  10.246   4.295  29.264  0.0805  0.4337  0.3666
19043S        S25847   5.966   0.721  19.138  0.3265 -0.0828 -0.0010
19044S        S25848   1.000   1.373  20.766 -0.1814 -0.0317  0.0064
19045S        S25849  10.124   7.244  13.857 -0.1483  0.3005  0.2464
19046S        S25850   3.577   0.381  17.597  0.2660 -0.4956  0.6653
19047S        S25851  11.019   6.872  12.987 -0.5031  0.1546 -0.0243
19048S        S25852  10.940   6.972  13.533  0.8066 -0.0399 -0.2132
19049S        S25853   4.036   2.987   1.538  0.0645 -0.1119  0.3402
19050S        S25854   7.592   3.207  24.886  0.1668 -0.4430 -1.1961
19051S        S25855  11.651   7.368  22.289 -0.3357  0.1416  0.2807
19052S        S25856   5.879   9.058  13.870  0.1842  0.1839 -0.5497
19053S        S25857   9.951   6.562  18.731  0.1499 -0.0096  0.3670
19054S        S25858   7.247  10.195  22.242  0.3456  0.4636 -0.4948
19055S        S25859   6.326   9.986  18.582 -0.5622 -0.5366  0.1184
19056S        S25860   7.698   8.917  31.407 -0.2437 -0.1687  0.2778
19057S        S25861   1.041   8.427  16.527 -0.4430 -0.0899  0.0041
19058S        S25862   7.767   0.132  29.056  1.1394  0.0484  0.1166
19059S        S25863   9.475  11.142  20.603  0.4183  0.0919  0.1271
19060S        S25864   6.997   5.512  13.569  0.3859  0.0114  0.0226
19061S        S25865   0.140  12.102  16.209  0.0272 -0.4665  0.3524
19062S        S25866   2.290   1.136  21.195  0.8089 -0.2673 -0.2021
19063S        S25867   9.302   7.706  19.622 -0.2172 -0.3629 -0.0548
19064S        S25868   0.472   8.704  11.022 -0.1314 -0.1157 -0.0098
19065S        S25869   1.180   5.797  18.726  0.2793  0.0650 -0.3544
19066S        S25870   7.710   5.767  29.765  0.2688 -0.4378  0.4525
19067S        S25871   8.781   2.845  14.741  0.2884 -0.2764  0.0411
19068S        S25872   7.710   5.968  27.180 -0.4532 -0.4077  0.9765
19069S        S25873   2.064   5.992  20.770 -0.4032 -0.1169  0.3492
19070S        S25874  10.538   2.011  29.034 -0.0559 -0.7274  0.9266
19071S        S25875   5.041  11.806  27.149  0.1488  0.3429 -0.1843
19072S        S25876   4.929  11.075  27.920 -0.4531 -0.2807  0.1726
19073S        S25877   4.021   9.441  27.330 -0.0414 -0.0196 -0.2572
19074S        S25878  10.836  10.637  15.442  0.5083  0.1099  0.2222
19075S        S25879   1.031   4.105  18.189  0.1219 -0.5229  0.5353
19076S        S25880   5.138   5.648  23.966 -0.0201 -0.0271  0.0082
19077S        S25881   3.539   5.632  24.113  0.7805  0.4083 -0.3755
19078S        S25882   3.853   8.950  18.561  0.0706  0.0449  0.3403
19079S        S25883  11.530  10.318   7.359 -0.0844 -0.1600  0.1831
19080S        S25884   6.412   7.901  24.533 -0.0823  0.4989  0.3503
19081S        S25885   2.073   5.832  13.462 -0.0214 -0.3435 -0.5778
19082S        S25886   4.829  11.953  15.682 -0.0764  0.1727 -0.1421
19083S        S25887   3.595   2.801  19.410 -0.0919  0.0745  0.3479
19084S        S25888   2.679   9.480  20.146  0.5529 -0.4589  0.4618
19085S        S25889   4.040  11.236  27.292  0.1904  0.3612 -0.1616
19086S        S25890   9.927   9.847  25.558  0.0248  0.4863  0.2422
19087S        S25891   5.783   3.586  22.542  0.0168  0.4981  0.1754
19088S        S25892  11.799  10.447  23.631 -0.4458  0.0075  0.0307
19089S        S25893   7.583   6.835  14.216 -0.0875  0.4628  0.0748
19090S        S25894  11.025   9.134  24.445 -0.2821 -0.0235  0.0047
19091S        S25895   0.752   3.842  12.700 -0.1582 -0.4293 -0.1475
19092S        S25896   7.106   5.323  17.374  0.5759  0.3653 -0.1732
19093S        S25897   2.549   5.140  30.515  0.4420  0.3698  0.1223
19094S        S25898  10.901  10.469  17.972 -0.3402 -0.4057 -0.1323
19095S        S25899   4.957   8.777  34.205  0.8204  0.0324 -0.0225
19096S        S25900   4.645   2.365  35.699 -0.5683 -0.4625  0.1781
19097S        S25901   7.290   0.287  13.005 -0.1079 -0.1454 -0.6224
19098S        S25902   3.670  11.788  29.004  0.0871  0.1311 -0.2085
19099S        S25903   8.600   5.180  16.429  0.4465  0.0181  0.3651
19100S        S25904   2.813   6.903  12.502  0.2191  0.4306 -0.2183
19101S        S25905   7.548   4.056  21.017  0.2555 -0.2596 -0.2463
19102S        S25906   7.652   9.914  19.763  0.2956  0.2007 -0.1637
19103S        S25907   2.844   4.015  12.879 -0.2098  0.1853  0.2057
19104S        S25908   1.065   1.756  28.721 -0.0076 -0.1599  0.1631
19105S        S25909   6.809   5.189  24.727 -0.1089 -0.1525  0.2091
19106S        S25910   9.263  12.079  26.838  0.0057 -0.1455 -0.3788
19107S        S25911   3.301   7.501  29.720  0.1787  0.1968 -0.7571
19108S        S25912   7.381   4.366  29.298  0.3421  0.2139 -0.1352
19109S        S25913   5.321   6.718  22.153  0.3079  0.1253 -0.4819
19110S        S25914  11.197   0.586  30.335 -0.2890 -0.0703  0.3874
19111S        S25915   5.889   8.650  24.080 -0.5743  0.4988  0.1395
19112S        S25916   9.638   0.207  14.389  0.4684 -0.2690  0.0921
19113S        S25917   2.618   1.567  14.492 -0.1965  0.0811  0.4559
19114S        S25918  10.928   3.800  28.802  0.1085  0.2058  0.3497
19115S        S25919  10.346   8.960  14.532  0.0681  0.1697  0.0393
19116S        S25920   2.755   1.357  16.881  0.0801 -0.6980 -0.0957
19117S        S25921   5.960   9.883  11.797  0.0615  0.1560  0.3422
19118S        S25922   1.472   8.946  11.508  0.2392 -0.1993  0.1493
19119S        S25923   3.207   2.183  18.012  0.1502 -0.1713 -0.0540
19120S        S25924   7.697   6.010  28.190 -0.1154 -0.2498  0.0561
19121S        S25925   8.582   2.989  21.399 -0.5769  0.0476 -0.0198
19122S        S25926   3.286   8.470  27.855 -0.0887  0.1127 -0.3379
19123S        S25927   5.107   2.442  19.937 -0.0878 -0.7057 -0.3962
19124S        S25928   5.882   0.794  21.859 -0.1960 -0.2844  0.1657
19125S        S25929  12.140   7.631  22.547 -0.3402  0.5839  0.2722
19126S        S25930   8.666   3.029  31.089  0.0298 -0.2915  0.0075
19127S        S25931   6.902   4.808  27.082 -0.5348  0.5176  0.4212
19128S        S25932   4.921   6.822  23.987 -0.0308  0.0061 -0.2735
19129S        S25933   5.859   7.049  17.362  0.3893  0.0480  0.1234
19130S        S25934   5.569   6.683  23.405 -0.1363  0.0867  0.3506
19131S        S25935   8.388   3.804  23.460  0.1840  0.3700 -0.0062
19132S        S25936   6.879   6.592  11.674  0.0841  0.0391 -0.3738
19133S        S25937  10.598   3.679  14.406  0.0930  0.4614 -0.5556
19134S        S25938   3.459   2.133  14.699 -0.5138  0.3282 -0.4438
19135S        S25939   1.382   7.860  21.275  0.0004 -0.0762  0.2643
19136S        S25940   0.096   2.666  13.423  0.1936 -0.4207 -0.0621
19137S        S25941   9.623   3.525  29.376  0.0601  0.1712  1.0945
19138S        S25942   6.025   4.458  23.167  0.0083  0.5706 -0.3920
19139S        S25943  10.021   5.869  30.106  0.4924 -0.0850 -0.2412
19140S        S25944   4.584   2.699  28.062  0.1292  0.0121 -0.5908
19141S        S25945   8.355   1.382  14.448  0.4977 -0.2136 -0.4479
19142S        S25946   6.941   7.485  26.914  0.1667 -0.0596  0.0353
19143S        S25947   4.287   2.041  30.449  0.2815  0.1219  0.0382
19144S        S25948   1.871   6.233  14.319  0.0246  0.1594  0.1146
19145S        S25949   3.708   4.593  23.146  0.1328  0.0310  0.0257
19146S        S25950  11.805   1.734  15.330  0.6695 -0.0634  0.1054
19147S        S25951  11.222   8.797  24.970  0.4093  0.4456  0.3793
19148S        S25952   7.776   9.244  21.547  0.1450  0.0891 -0.2577
19149S        S25953   5.236   5.693  24.466 -0.2941 -1.2534 -0.0644
19150S        S25954   8.891   5.405  16.056  0.1528 -0.1888 -0.0744
19151S        S25955  12.216   7.348  19.355 -0.0527  0.3190 -0.1889
19152S        S25956  10.533   3.781  29.269  0.2496  0.6167  0.4094
19153S        S25957   6.695   9.805  25.316  0.6986  0.3876  0.1724
19154S        S25958   1.536   2.573  22.249 -0.2628  0.3441  0.0370
19155S        S25959   0.919   8.318  13.052 -0.6681  0.1059 -0.1194
19156S        S25960   6.298   0.000  13.451  0.1857  0.2319  0.1752
19157S        S25961  11.974   7.356  18.912 -0.2198  0.6535  0.1840
19158S        S25962  10.709   2.244  30.690  0.5670 -0.3755  0.2879
19159S        S25963   8.709   0.499  27.436  0.0580  0.0848 -0.3621
19160S        S25964   6.224  11.533  26.294  0.1377  0.4990  0.2214
19161S        S25965   0.638   2.186  24.153 -0.3749  0.1319 -0.2562
19162S        S25966  11.782   5.531   1.135 -0.0090 -0.0868  0.2268
19163S        S25967   0.206   3.708  18.434  0.3431 -0.3259 -0.5547
19164S        S25968  10.876   4.175  19.330 -0.0319 -0.5397  0.2673
19165S        S25969   6.040   7.183  14.421  0.0127 -0.2780  0.5606
19166S        S25970   6.298   7.376  26.608 -0.0377  0.8359  0.3887
19167S        S25971   7.856   7.951   3.904  0.2882 -0.4403 -0.2835
19168S        S25972  11.904   2.622  29.011 -0.2541 -0.3303  0.3945
19169S        S25973   6.463   5.731  15.494  0.1741 -0.0800  0.3612
19170S        S25974  11.243  10.413  29.327 -0.4915  0.4274  0.2537
19171S        S25975   8.089   1.305  20.582 -0.0599  0.1916 -0.1018
19172S        S25976  12.130   3.400  27.306 -0.0896 -0.2597  0.1500
19173S        S25977   0.404  11.191  17.542 -0.1315 -0.7673  0.3169
19174S        S25978   4.015   1.258  49.042  0.3707  0.0104  0.2448
19175S        S25979   2.061  10.630  14.745 -0.0685  0.2587 -0.1597
19176S        S25980   6.008   9.922  22.871  0.2481  0.4773  0.0608
19177S        S25981   6.922   9.972  19.038 -0.7085 -0.3472  0.4245
19178S        S25982  10.135  11.887  16.215 -0.3612 -0.2188 -0.2130
19179S        S25983   5.094  11.073  17.233 -0.6323 -0.1320 -0.1025
19180S        S25984   6.057  11.357  20.281 -0.1347 -0.4364 -0.2068
19181S        S25985   3.604   2.834  12.056 -0.1168 -0.1638 -0.5617
19182S        S25986   6.046  11.181  25.889 -0.0115 -0.5318  0.1385
19183S        S25987   9.744   7.551  18.525 -0.0472  0.0689 -0.2646
19184S        S25988   3.464   9.001  11.850  0.1426 -0.2662 -0.2670
19185S        S25989   9.853   9.741  17.135 -0.1311 -0.2190 -0.2212
19186S        S25990  11.174   9.905  26.531 -0.8340  0.1493 -0.4224
19187S        S25991  11.347  10.644  19.821 -0.1033  0.5860 -0.5306
19188S        S25992   9.858  10.269  29.378 -0.0545  0.2054  0.1866
19189S        S25993   8.880  10.269   4.324  0.2364  0.2383  0.5358
19190S        S25994   3.221   9.643  20.793  0.2852 -0.1626 -0.2703
19191S        S25995   7.658   4.347  13.809  0.1427 -0.2882  0.5614
19192S        S25996   8.990  10.149  19.371 -0.4859  0.5136 -0.1494
19193S        S25997   6.326  11.980  25.796 -0.0857 -0.2880 -0.2695
19194S        S25998   8.447   9.265  11.266  0.4515 -0.5603 -0.2560
19195S        S25999   3.893   0.490  20.934  0.2144  0.0746  0.0725
19196S        S26000   5.876  11.722  20.940  0.3387  0.1531  0.4245
19197S        S26001   8.090   5.266  16.413  0.1117 -0.8486  0.0571
19198S        S26002  10.312   4.377  12.634 -0.1849  0.3242  0.1516
19199S        S26003  11.431   2.899  12.003  0.5103 -0.6291  0.2049
19200S        S26004   2.905   9.962  20.022 -0.3178 -0.3271 -0.5523
19201S        S26005  10.248   9.823  15.215  0.5697 -0.0687 -0.4414
19202S        S26006   2.848  12.338  13.890 -0.2158 -0.1554  0.1874
19203S        S26007   8.547   6.968  11.447  0.2641  0.3614  0.0205
19204S        S26008   7.419   9.286  30.422  0.1793  0.2200  0.0571
19205S        S26009   8.616   0.012  20.650 -0.1447  0.4384 -0.3804
19206S        S26010  11.856   3.871  27.550 -0.3784  0.1948 -0.1600
19207S        S26011   1.953   8.559  18.234  0.4965 -0.2622  0.4140
19208S        S26012   8.165   8.271  22.808  0.7206  0.1461 -0.1491
19209S        S26013   4.584   0.621  30.451  0.3498 -0.3221 -0.7569
19210S        S26014   7.546   4.513  30.471 -0.4455  0.2891  0.2219
19211S        S26015   3.152   4.913  12.308  0.4114  0.2861 -0.4293
19212S        S26016   6.419  10.036  19.081  0.2280  0.4825 -0.0002
19213S        S26017   9.559   4.276   1.634  0.3586 -0.0553  0.1313
19214S        S26018   7.236   7.681  25.152 -0.1296  0.3555  0.1450
19215S        S26019  10.872  10.838  30.677 -0.0716  0.2411  0.4627
19216S        S26020   8.920   6.001  24.023  0.0099  0.0584  0.1529
19217S        S26021  10.314   2.454  16.937 -0.1607  0.0802 -0.4408
19218S        S26022   1.350   6.496  22.068 -0.3197  0.3262 -0.1108
19219S        S26023   5.275   4.522  19.801 -0.0451  0.2986 -0.0362
19220S        S26024   4.682  11.093  11.194 -0.1465  0.2697  0.1302
19221S        S26025   8.501  10.521  25.898  0.0255 -0.3660 -0.1628
19222S        S26026   4.852   6.264  23.283 -0.7215 -0.2787 -0.1200
19223S        S26027   4.842   2.052  13.256  0.1893  0.3485 -0.0429
19224S        S26028   1.276   9.167  20.760  0.1463  0.7326 -0.2104
19225S        S26029   6.952  10.303  38.662 -0.1504 -0.1035  0.2512
19226S        S26030  10.682   5.470  23.104 -0.1677  0.4178  0.5594
19227S        S26031   9.788   4.654   9.739  0.3256 -0.4781  0.2327
19228S        S26032   7.961   1.028  29.703  0.0211 -0.1501 -0.5783
19229S        S26033   0.990   7.131  45.127 -0.2560  0.0852  0.1881
19230S        S26034   9.185   0.965  23.428  0.0857 -0.4675  0.5660
19231S        S26035   1.769   4.240  16.672  0.1551 -0.1350  0.0176
19232S        S26036   9.284   1.318  24.364  0.1045  0.2977  0.2729
19233S        S26037   1.396   9.799  22.548 -0.0848  0.1563 -0.5397
19234S        S26038   1.149   7.206  11.831  0.0242 -0.2581  0.0625
19235S        S26039   4.614  10.937  14.064 -0.5575 -0.0194 -0.0102
19236S        S26040   1.877   5.948  26.341 -0.2146  0.0418 -0.0781
19237S        S26041   2.608   2.844  20.488 -0.2042  0.4025  0.3667
19238S        S26042   1.899   1.585  17.409  0.0010 -0.1515 -0.1538
19239S        S26043   8.430   2.979  14.402  0.3062 -0.0784 -0.1051
19240S        S26044   5.268   8.782  24.748 -0.3990  0.4431  0.1806
19241S        S26045   0.905   3.291  23.650 -0.0897 -0.3100  0.4285
19242S        S26046   0.374   3.439  25.374 -0.1606  0.0809 -0.3807
19243S        S26047   5.681   0.932  16.851 -0.0019 -0.3960 -0.0037
19244S        S26048   6.470   4.316  21.298 -0.2007 -0.0607  0.5314
19245S        S26049   1.762   9.441  25.614 -0.3674  0.0207 -0.4826
19246S        S26050   8.070   2.174  22.832  0.6053  0.2097  0.2617
19247S        S26051   7.961   6.627  23.526  0.1964  0.1052 -0.2162
19248S        S26052   2.679  10.474  26.029  0.5904 -0.1981  0.1387
19249S        S26053   7.135   2.937  18.175 -0.0804  0.1007 -0.1449
19250S        S26054  10.699   3.380  15.223  0.0354  0.1940 -0.0281
19251S        S26055   8.984   7.266  26.582 -0.1516  0.1229 -0.9494
19252S        S26056   2.142   0.779  29.780 -0.5066 -0.8745 -0.3499
19253S        S26057   1.949  10.641  20.164 -0.2723  0.0796 -0.1028
19254S        S26058  11.734  11.606  18.096 -0.6821  0.7924 -0.3365
19255S        S26059   3.801   2.216  15.169 -0.1761 -0.1903 -0.1984
19256S        S26060   3.289   9.370  14.598 -0.1032 -0.1624 -0.4224
19257S        S26061  11.535   0.434  27.674  0.1481 -0.3769 -0.2920
19258S        S26062   8.798   6.331  23.262  0.1061  0.4088 -0.1259
19259S        S26063   3.893   3.961  28.614 -0.7007  0.1096 -0.4057
19260S        S26064   9.618   2.266   5.776 -0.1741 -0.3511  0.7784
19261S        S26065   6.295   6.369  16.945 -0.2155 -0.3463  0.2207
19262S        S26066   2.179   8.913  28.075  0.2595 -0.1476 -0.2039
19263S        S26067   3.120   2.453  22.375  0.0256  0.1137 -0.0626
19264S        S26068   0.193   7.817  28.816 -0.0116 -0.0230  0.1597
19265S        S26069   2.881  10.984  18.636 -0.1959  0.3984 -0.1664
19266S        S26070   7.554   7.458  29.097 -0.1005  0.5547  0.2578
19267S        S26071   2.501   8.930  20.622 -0.3706 -0.1744 -0.5181
19268S        S26072   6.257   9.653  24.994 -0.0213  0.2192 -0.0344
19269S        S26073  12.002   3.091  25.226  0.0605 -0.5087  0.0841
19270S        S26074   4.724   9.085   4.957 -0.1160 -0.0350 -0.1917
19271S        S26075  11.929   5.860  24.236  0.2230  0.5174 -0.2972
19272S        S26076   5.793   4.828  11.786  0.1277  0.0721 -0.8400
19273S        S26077   7.710  11.480  14.837 -0.1980 -0.2477  0.2137
19274S        S26078  11.763   3.588  14.964  0.0412 -0.2199 -0.1450
19275S        S26079   4.108   4.804  14.423  0.2603 -0.2509 -0.3587
19276S        S26080   7.245   6.291  24.342  0.0229  0.1417  0.3265
19277S        S26081   4.739   9.046  24.717 -0.4567  0.0197 -0.3344
19278S        S26082  10.727  11.302  22.821 -0.6758  0.0367  0.0779
19279S        S26083   4.391  10.578  27.642  0.3382 -0.2425 -0.2516
19280S        S26084   0.490   9.145  15.973 -0.2102 -0.4354  0.2746
19281S        S26085   0.602   6.218  12.654  0.2066  0.2218 -0.2751
19282S        S26086   8.017   4.911  39.233 -0.1111 -0.0177  0.2491
19283S        S26087   8.902   2.000  22.971 -0.4950  0.0085  0.3584
19284S        S26088   8.505   8.796  13.538 -0.1041  0.0729 -0.1091
19285S        S26089   8.566   1.471  25.566  0.6276 -0.2820 -0.5354
19286S        S26090   4.985   6.350  19.825  0.6331 -0.3333  0.5735
19287S        S26091   5.197   6.942  11.617  0.2614 -0.0996  0.6287
19288S        S26092  11.132  11.651  15.497  0.3393  0.0080 -0.5646
19289S        S26093   5.422   3.072  45.575  0.4262 -0.3260 -0.0519
19290S        S26094   8.029   0.113  13.399 -0.4473 -0.1248 -0.4957
19291S        S26095   0.371   2.589  30.786  0.8400  0.4455 -0.0635
19292S        S26096   2.273   9.528  25.778 -0.0732  0.7607 -0.1622
19293S        S26097   5.594   5.017  29.715 -0.4323 -1.0265 -0.2890
19294S        S26098   5.904   5.873  19.026 -0.2569  0.1239 -0.1549
19295S        S26099   3.603  11.058  15.027  0.0826  0.1411  0.1002
19296S        S26100   3.135   1.566  11.557  0.1539  0.2805  0.3359
19297S        S26101   0.516   5.449  15.670  0.5357  0.5404 -0.2421
19298S        S26102   9.472  11.382  24.411  0.0417 -0.2132  0.1388
19299S        S26103   4.436   2.355  20.200 -0.0636 -0.2014  0.0815
19300S        S26104   4.321   6.597  24.053  0.0716  0.3310 -0.2642
19301S        S26105   1.933   4.267  28.050  0.5424  0.3981  0.3481
19302S        S26106  10.688  11.321  20.695 -0.5378  0.5185  0.0322
19303S        S26107  12.117   2.369  26.507 -0.1239  0.3682 -0.2131
19304S        S26108   8.070   4.845  19.667 -0.1840  0.1294  0.1767
19305S        S26109   1.052  11.079  26.686 -0.8637  0.4995 -0.3322
19306S        S26110   8.275   4.032  11.447 -0.1217  0.1288 -0.1808
19307S        S26111   1.617   3.741  29.024  0.4162 -0.2262  0.0516
19308S        S26112   8.055   2.765  15.648  0.0660  0.9628 -0.0517
19309S        S26113   0.974   7.763  23.558 -0.3605  0.2058  0.0637
19310S        S26114   0.445   2.325  28.151  0.3284 -0.3449  0.0063
19311S        S26115   7.640   6.682  27.756  0.6105 -0.5984  0.2435
19312S        S26116   4.450   9.404  18.385 -0.6077  0.4794  0.2167
19313S        S26117   2.829   7.015  20.104  0.2154  0.0919  0.1147
19314S        S26118   8.045   7.940  21.401  0.0860 -0.0987 -0.0215
19315S        S26119  10.620   5.632  24.992 -0.2511 -0.3299 -0.1037
19316S        S26120  11.496   3.309  19.401 -0.0771 -0.1679 -0.1807
19317S        S26121   8.795   2.813  12.607  0.0444 -0.4210 -0.0132
19318S        S26122   8.861  11.792  27.139  0.1090 -0.1537  0.1678
19319S        S26123   2.191   9.281  13.468 -0.1024 -0.1375  0.0860
19320S        S26124   2.137   3.648  26.833 -0.0957  0.3988 -0.2672
19321S        S26125   5.748   4.368  19.379  0.2789  0.1405 -0.0109
19322S        S26126  11.053   5.465  12.028  0.6361  0.2720  0.1512
19323S        S26127   4.492   9.823  17.112  0.2825  0.3875  0.0960
19324S        S26128   1.079  11.073  18.347  0.2820 -0.0945 -0.4898
19325S        S26129   6.385   4.554  18.533 -0.0902 -0.1493  0.1851
19326S        S26130  10.801   2.649  31.521  0.6193  0.1619 -0.5473
19327S        S26131   7.652   7.228  16.187  0.0165  0.6477  0.0939
19328S        S26132  10.995  11.878  23.156 -0.0319 -0.4265  0.7047
19329S        S26133   4.376   0.842  22.763 -0.0953 -0.1961 -0.0589
19330S        S26134   4.094  10.254  23.757  0.6305  0.4638  0.5384
19331S        S26135  12.196   1.782  18.793 -0.5655 -0.1750 -0.1272
19332S        S26136   5.427   7.363  24.675  0.1556  0.1628  0.1535
19333S        S26137   8.097   8.958  30.976  0.4737 -0.5587 -1.2763
19334S        S26138   2.463   9.622  16.700 -0.1567  0.1266  0.2476
19335S        S26139   7.140   4.305  27.917 -0.0852  0.0903 -0.1825
19336S        S26140   5.017   0.146  14.419  0.3742  0.2506 -0.0734
19337S        S26141   2.601  12.334  27.169  0.7301  0.5756 -0.0244
19338S        S26142   8.555   0.141  16.105  0.0429  0.1081 -0.2720
19339S        S26143   2.056  11.088  11.825  0.1619 -0.0614  0.2824
19340S        S26144   3.403  11.974  27.193 -0.0011  0.1196  0.2789
19341S        S26145   8.770   7.695  23.441 -0.0396  0.0380 -0.2693
19342S        S26146  11.975   6.796  14.709  0.2002 -0.0892 -0.1968
19343S        S26147  10.269  11.234  26.581  0.3484  0.0941 -0.3055
19344S        S26148   6.684   0.121  24.725 -0.2898  0.2487 -0.0677
19345S        S26149   9.935   7.978  18.799  0.5712 -0.2011  0.1572
19346S        S26150  11.932   4.352  14.601 -0.2203  0.2012  0.0124
19347S        S26151  12.145   7.473  11.238  0.1498  0.1933  0.4669
19348S        S26152   9.525  10.830  26.697 -0.5310  0.0660 -0.8998
19349S        S26153   2.230   4.944  24.483 -0.0650  0.6228 -0.3542
19350S        S26154   7.034   8.710  19.170 -0.1116  0.0144 -0.7932
19351S        S26155   7.132   4.328  25.167  0.2798 -0.2168 -0.2771
19352S        S26156   5.977   8.564  28.423 -0.0070 -0.1380 -0.1427
19353S        S26157   7.684   7.789  22.445  0.1719 -0.2782 -0.3456
19354S        S26158   1.882   3.388  15.036  0.3527 -0.3203  0.4961
19355S        S26159   0.339   3.762  24.925  0.2594 -0.6529 -0.3987
19356S        S26160   2.616   1.080  11.945 -0.3478 -0.3533 -0.2269
19357S        S26161   2.625  11.722  11.157 -0.3699 -0.1982 -0.2148
19358S        S26162   5.916   5.638  27.670 -0.2785  0.0317 -0.1226
19359S        S26163   9.274   3.749  15.168 -0.0672 -0.5752  0.1093
19360S        S26164  11.111   9.608  24.670  0.2983 -0.1490 -0.0235
19361S        S26165   7.398  11.504  27.847 -0.2670 -0.1809  0.3055
19362S        S26166   9.240   3.625  13.718  0.0143 -0.2253 -0.1870
19363S        S26167  11.341   9.885  16.348 -0.3055 -0.1746 -0.2773
19364S        S26168   0.446   3.890  24.348 -0.1735  0.4573  0.1755
19365S        S26169   2.140   8.795  22.738  0.4698 -0.3097 -0.2962
19366S        S26170   8.455   2.542  15.896 -0.2132 -0.3003 -0.1281
19367S        S26171   6.672   0.876  13.604  0.0691  0.3856  0.2129
19368S        S26172   2.721   8.408  11.576 -0.2532  0.2420 -0.0507
19369S        S26173   9.070   5.984  13.336  0.1403  0.0961 -0.1717
19370S        S26174   9.989   7.934  24.095 -0.5721  0.2707 -0.2598
19371S        S26175  11.738   2.675  18.739 -0.0749  0.4676 -0.5026
19372S        S26176   1.886   2.656  15.777  0.2176  0.2640  0.4714
19373S        S26177  11.894   1.736  12.174  0.4724  0.0328 -0.6874
19374S        S26178   1.791   8.533  22.994  0.4154 -0.3095 -0.2033
19375S        S26179   7.450   5.228  22.700  0.1170  0.1873 -0.0309
19376S        S26180   4.925   9.643  31.858 -0.0925  0.5706 -0.3528
19377S        S26181   7.172  10.378  29.135  0.4696 -0.5212 -0.2896
19378S        S26182   1.850   5.037  16.306 -0.2102  0.5154  0.1139
19379S        S26183   3.503   3.470  20.603  0.2545 -0.2627  0.0406
19380S        S26184   0.953   9.583  23.582 -0.3956  0.2029 -0.4620
19381S        S26185   6.159  11.576  49.692 -0.3450  0.0844  0.4412
19382S        S26186   7.473   1.791  23.829 -0.1108  0.2743 -0.6418
19383S        S26187   6.449   0.062  12.541 -0.2807 -0.5752 -0.0379
19384S        S26188   5.408   6.088  24.151 -0.1612 -0.1580  0.2570
19385S        S26189   3.092   3.332  11.484 -0.1480  0.3342 -0.0757
19386S        S26190   3.671  11.878  15.534  0.0505 -0.2289 -0.4262
19387S        S26191   3.824  11.996  18.629 -0.2637 -0.5253  0.0116
19388S        S26192   1.073   8.769  17.868  0.4938 -0.1802 -0.3950
19389S        S26193   9.392   0.397  26.134  0.5154  0.1169 -0.4752
19390S        S26194   9.460   3.210  12.100  0.4519  0.1303 -0.5136
19391S        S26195   5.002   2.894  22.813 -0.2364  0.2463 -0.3198
19392S        S26196   3.843   4.821  26.451 -0.2859 -0.5631 -0.1139
19393S        S26197  10.904   7.251  22.542  0.5532 -0.3418 -0.2692
19394S        S26198   3.678   6.506  16.392  0.4025  0.5200 -0.2132
19395S        S26199   3.907   2.825  22.069 -0.2329 -0.2617  0.2053
19396S        S26200  11.841  10.515  21.397  0.3501  0.3744 -0.1690
19397S        S26201  11.741   9.236  28.509  0.4137 -0.3047  0.2864
19398S        S26202  11.463   7.854  15.665 -0.5257 -0.1389  0.2460
19399S        S26203   0.426   8.248  21.756  0.4837 -0.3221  0.2969
19400S        S26204   4.126   2.462  28.138 -0.4556  0.7808  0.4473
19401S        S26205   0.718   6.961  28.368 -0.5512 -0.7481  0.5217
19402S        S26206   5.682  10.752  26.028  0.0663  0.8580 -0.5861
19403S        S26207   1.015   2.233  18.859  0.1813 -0.2500  0.0469
19404S        S26208  10.595  11.897  14.798 -0.4110 -0.3784  0.1960
19405S        S26209  10.218   3.877  28.404  0.2223  0.1168 -0.0481
19406S        S26210  10.304   3.425  24.027  0.6001  0.6290  0.3202
19407S        S26211   9.546  10.545  23.580 -0.2626 -0.4063  0.4046
19408S        S26212   5.190   5.692  17.129 -0.1074  0.1048  0.0835
19409S        S26213   1.600   8.499  22.320 -0.2141 -0.3226  0.0076
19410S        S26214   5.409   5.199  17.220  0.2566 -0.3082 -0.5555
19411S        S26215   8.136  10.609  11.883  0.5475  0.2528  0.2432
19412S        S26216   1.270  10.879  17.025  0.3921  0.2273  0.3405
19413S        S26217   0.306   6.841  20.657  0.5046 -0.4230 -0.0186
19414S        S26218   9.993   3.975  11.845 -0.1478  0.4839 -0.0611
19415S        S26219   2.130   3.400  16.368 -0.4686 -0.5600 -0.0730
19416S        S26220   7.567   6.354  28.664 -0.2949  0.1237  0.2190
19417S        S26221  10.156   4.664  11.719  0.3398  0.5419 -0.0775
19418S        S26222   8.517   1.744  31.645  0.4056  0.3076  0.5412
19419S        S26223   1.853   6.755  16.965  0.1547 -0.1106  0.3214
19420S        S26224  10.328   4.046  13.112  0.1605  0.1720  0.5803
19421S        S26225   8.035   4.622  30.666 -0.4939  0.0584  0.0497
19422S        S26226   9.451   9.017  16.314  0.4309  0.2669  0.4099
19423S        S26227   4.063   5.484  22.449 -0.0346 -0.0329  0.2566
19424S        S26228   2.647   5.701  13.474 -0.2171  0.5028 -0.3759
19425S        S26229   2.068   2.331  18.428 -0.0726 -0.1491 -0.2771
19426S        S26230   7.100   2.688  15.935  0.0456  0.3225 -0.1367
19427S        S26231  10.268   1.897  31.124  0.0676 -0.4581  0.3501
19428S        S26232   8.520   7.687  29.000  0.0058 -0.4558 -0.4975
19429S        S26233   3.384   2.349  26.191 -0.4390  0.4857 -0.1731
19430S        S26234   0.269  10.122  10.974  0.5893 -0.3018 -0.1390
19431S        S26235   1.423   7.478  15.999 -0.1776 -0.1903 -0.2689
19432S        S26236   7.826   1.649  22.878  0.5868 -0.0148 -0.2822
19433S        S26237   0.187   4.894  46.049 -0.0382  0.0860  0.7705
19434S        S26238   3.262   1.985  18.479  0.2780 -0.0277  0.2975
19435S        S26239   5.587  12.099  11.476  0.1767 -0.3477  0.1411
19436S        S26240   6.412   2.935  15.166  0.2475  0.1196  0.1039
19437S        S26241  10.669   6.681  16.277 -0.0521 -0.1041  0.1624
19438S        S26242   8.788   4.731  27.328  0.1323 -0.2644 -0.2652
19439S        S26243   3.877  10.949  11.549  0.0486 -0.5202 -0.2887
19440S        S26244   3.889  10.342  29.067  0.6614 -0.3091 -0.4114
19441S        S26245   6.828   9.694  30.279 -0.0598 -0.5816 -0.7485
19442S        S26246   8.805   2.515  30.614 -0.0728  0.0936  0.2368
19443S        S26247  12.206   4.845  24.845  0.6604  0.2524  0.3220
19444S        S26248   4.873   2.942  19.703  0.1550 -0.3941 -0.4549
19445S        S26249   1.249   5.025  12.689 -0.4727  0.2278  0.2146
19446S        S26250  10.736   4.331  24.213  0.5362 -0.2193 -0.0573
19447S        S26251  12.257   8.234  25.708  0.0814  0.1426  0.3100
19448S        S26252   9.006   6.540  15.552 -0.1361 -0.0634  0.0330
19449S        S26253   0.254   9.954  18.666  0.3359 -0.1061  0.3010
19450S        S26254   3.666  10.974  17.447  0.2760 -0.2659  0.2666
19451S        S26255  10.001   3.449  16.811  0.3121 -0.4365  0.5385
19452S        S26256   0.134   9.005  26.331 -0.1078  0.2567  0.0174
19453S        S26257  10.245   6.609  15.256 -0.0740 -0.1154 -0.2240
19454S        S26258   1.652   8.155  11.801 -0.0437 -0.1518  0.0427
19455S        S26259   1.962   6.702  14.720  0.6054 -0.1971  0.2829
19456S        S26260   3.609   6.661   5.778  0.1867 -0.1440  0.7021
19457S        S26261   8.353  12.035  22.139  0.6256 -0.0818 -0.2315
19458S        S26262  11.602   8.593  15.129 -0.0620  0.0695  0.1722
19459S        S26263   3.655  11.393  28.651  0.3190  0.1938  0.8794
19460S        S26264   0.587  10.419  24.397  0.2614 -0.2066  0.1449
19461S        S26265   9.615   2.656  16.700 -0.0512 -0.3160  0.0412
19462S        S26266   1.119  12.251  32.371  0.3408  0.3281  0.0891
19463S        S26267   1.895   2.617  13.230 -0.3554  0.2109 -0.2035
19464S        S26268   5.723   2.505  20.905  0.1323 -0.4438 -0.2415
19465S        S26269  10.584   9.308  25.273 -0.3852 -0.0204  0.0771
19466S        S26270   3.600   3.134  14.612  0.0384 -0.0789  0.2805
19467S        S26271   5.536  10.529  12.300  0.4952  0.1332  0.2665
19468S        S26272   2.601   6.293  17.049 -0.1393 -0.1752 -0.3029
19469S        S26273   2.199  12.216  25.119 -0.4192  0.1218  0.2670
19470S        S26274   6.487   8.220  11.255  0.0927  0.5724  0.2963
19471S        S26275  10.940   4.579  14.249  0.1773  0.0932  0.1071
19472S        S26276  10.850   0.579  14.612 -0.3140 -0.1956  0.1120
19473S        S26277  11.885   0.259  23.959  0.6265  0.0720 -0.1737
19474S        S26278   0.668   0.085  17.436 -0.3289 -0.1104 -0.1558
19475S        S26279   6.781   7.296  11.741  0.0154  0.0724  0.1080
19476S        S26280   9.509   2.100  12.982 -0.1242 -0.0944 -0.4675
19477S        S26281   0.987   9.939  20.499 -0.1354 -0.0129  0.0273
19478S        S26282   7.216   1.886   9.899  0.3031  0.0117  0.2734
19479S        S26283  10.783  12.122  11.068 -0.2924 -0.0191 -0.2324
19480S        S26284   1.557   6.216  18.515  0.5812 -0.2004  0.4680
19481S        S26285   1.602   2.488  30.591 -0.0395 -0.6368  0.2830
19482S        S26286   7.916   2.561  19.332 -0.2175 -0.2805 -0.2270
19483S        S26287   6.033   6.977  13.146 -0.0131  0.2477 -0.1708
19484S        S26288   8.702   6.758  28.833  0.3857  0.2950 -0.0749
19485S        S26289   2.649  12.173  24.291 -0.1660  0.4206 -0.0567
19486S        S26290   2.829   7.120   9.375 -0.0195 -0.2843 -0.0438
19487S        S26291   1.403   8.055  24.495 -0.5990  0.0352  0.1652
19488S        S26292   9.306   7.246  24.153 -0.1239  0.0678  0.4126
19489S        S26293   6.518  10.196  11.284  0.1419 -0.3105 -0.1496
19490S        S26294   8.500   7.574  11.217 -0.6140 -0.0912 -0.5050
19491S        S26295  10.833   2.916  28.109  0.0529  0.0384 -0.2009
19492S        S26296   0.108   6.908  27.839  0.1748 -0.1340  0.2199
19493S        S26297   9.573   8.284  14.572  0.6535 -0.0984 -0.2489
19494S        S26298  10.657   9.569  12.384  0.0250  0.7415 -0.0041
19495S        S26299   3.398  10.926  23.875 -0.1411 -0.1080  0.1128
19496S        S26300  10.494   3.314  19.201 -0.4163  0.1500  0.1592
19497S        S26301   1.159   7.656  24.943 -0.1803 -0.0361 -0.7006
19498S        S26302  12.103   7.427  42.395 -0.5720 -0.2973 -0.0165
19499S        S26303   2.527   7.325  11.784  0.4491 -0.0949 -0.1265
19500S        S26304   7.293   4.954  15.407 -0.0187  0.3498  0.1582
19501S        S26305   9.018  11.814  31.253  0.1481 -0.2032  0.5933
19502S        S26306   7.975  11.953  14.488  0.3100  0.0375 -0.0832
19503S        S26307   8.413   1.612  15.633 -0.4495  0.1456 -0.3297
19504S        S26308   5.559   6.152  30.699  0.3758 -0.9012 -0.3171
19505S        S26309   0.444  10.891  18.445 -0.3134  0.0961  0.0828
19506S        S26310   9.971   5.640  30.647  0.7502  0.2742 -0.2553
19507S        S26311   1.125   1.228  29.979 -0.2203 -0.5753  0.0850
19508S        S26312   4.460   3.921  28.807  0.4966 -0.1697  0.2586
19509S        S26313   3.876  12.084  12.335 -0.2211  0.1927 -0.1986
19510S        S26314   7.744  10.327  23.167 -0.2923 -0.0178 -0.2116
19511S        S26315   7.568  12.093  25.328 -0.0872 -0.1242 -0.3688
19512S        S26316   3.652   1.591  11.854  0.0192  0.0436  0.1684
19513S        S26317   7.516  10.030  26.882 -0.0416  0.2910 -0.6561
19514S        S26318  11.265   8.209  18.658  0.1446 -0.0885  0.2929
19515S        S26319  11.298   4.804  21.136 -0.4062  0.3512  0.3093
19516S        S26320   7.312   7.664  12.885  0.1285  0.1622 -0.7177
19517S        S26321  11.394   7.916  14.055 -0.2192 -0.3783  0.4096
19518S        S26322   4.312  11.806  25.064 -0.3192 -0.0151  0.4084
19519S        S26323   6.807  10.298  22.485  0.0471 -0.0339 -0.0387
19520S        S26324  12.355   3.292  17.132  0.1422  0.1151  0.0718
19521S        S26325   1.234   9.277  24.956 -0.2025  0.2907  0.2890
19522S        S26326   2.368   9.746  28.830  0.0019 -0.0002  0.5216
19523S        S26327   5.663  11.346  31.305 -0.5946  0.1085  0.6036
19524S        S26328   6.779  10.325  25.080 -0.1169 -0.0738 -0.4649
19525S        S26329   7.977  10.863  21.000 -0.0708  0.0456 -0.0645
19526S        S26330   0.260   3.254  14.162  0.1758  0.4652  0.4780
19527S        S26331   4.360  12.274  31.118 -0.0466 -0.4799 -0.0130
19528S        S26332  12.136   8.884  13.566  0.0166  0.0268 -0.1955
19529S        S26333  10.112   1.580  30.631  0.2408 -0.6097 -0.0004
19530S        S26334   1.211   0.082  25.469 -0.3513  0.2741 -0.5488
19531S        S26335  10.121  10.284  12.046  0.2426 -0.0983 -0.1285
19532S        S26336   2.633   6.126  13.214  0.0239 -0.0533  0.2503
19533S        S26337   4.091   4.226  16.266 -0.1323  0.1169 -0.3862
19534S        S26338  12.104   5.109  14.309  0.3228 -0.1330  0.3420
19535S        S26339   0.562   6.357  30.612  0.4886 -0.6471  0.5888
19536S        S26340  10.242  10.350  13.856 -0.0074  0.4435 -0.0320
19537S        S26341   5.360   1.543  14.970 -0.0028 -0.1107 -0.4889
19538S        S26342   6.943   7.705  24.750  0.3245 -0.1387  0.6769
19539S        S26343   9.749  10.362  17.049 -0.3422  0.0979 -0.1090
19540S        S26344   1.816  11.879  40.964 -0.5092  0.1104 -0.1505
19541S        S26345   2.023   4.727  15.102 -0.4891  0.2982  0.1476
19542S        S26346   7.396  10.318  15.064  0.3763 -0.2455 -0.5303
19543S        S26347  10.697   4.217  16.429  0.0581 -0.3295 -0.1793
19544S        S26348   9.358   4.689  18.205  0.2662  0.0356 -0.2254
19545S        S26349  11.800  11.591  12.672 -0.1267  0.0388 -0.3288
19546S        S26350  12.124   6.720  30.685 -0.2940 -0.1199 -0.6218
19547S        S26351  10.029  10.776  20.707 -0.7242 -0.0407  0.3043
19548S        S26352   5.242  10.572  11.838 -0.6370  0.0188  0.3010
19549S        S26353   8.767  11.761  18.734  0.3412  0.0991  0.0030
19550S        S26354  12.311   1.862  12.901 -0.2258  0.3105 -0.3653
19551S        S26355   0.502   6.367  13.160 -0.0672 -0.3837  0.6024
19552S        S26356   0.483  11.253  25.347 -0.0014  0.5420 -0.3627
19553S        S26357   2.450  11.935  11.556  0.0969 -0.1143 -0.5320
19554S        S26358   3.463  11.208  12.686 -0.4394 -0.0211  0.2728
19555S        S26359   3.916   0.725  12.252 -0.0653 -0.4915  0.1681
19556S        S26360   8.656  10.820  31.532 -0.3822  0.4431  0.0986
19557S        S26361   4.094   9.151  11.829  0.0938  0.0363 -0.5226
19558S        S26362   3.697   1.219  17.099 -0.5151 -0.1429 -0.5673
19559S        S26363   9.498   2.016  17.984  0.0748  0.3019  0.3739
19560S        S26364  10.193   3.798  13.626 -0.0931 -0.2655  0.1577
19561S        S26365  10.233  10.331  29.834 -0.8457 -0.0860 -0.1969
19562S        S26366   9.480   9.438  26.758 -0.2384  0.7016 -0.0994
19563S        S26367   8.321   2.328  17.979 -0.2694 -0.1004  0.3445
19564S        S26368   6.754   1.584  23.557  0.2506 -0.1392  0.2306
19565S        S26369   7.183   9.869  21.040 -0.1641 -0.1998  0.7551
19566S        S26370  10.476   9.767  27.810 -0.2165 -0.3325  0.7369
19567S        S26371   2.810   3.301  13.382 -0.4721  0.4443 -0.1159
19568S        S26372   5.205   3.844  12.587  0.4894 -0.3909  0.0486
19569S        S26373   2.409   2.093  31.583 -0.0455  0.2186 -0.7212
19570S        S26374   6.564   1.249  26.483  0.4217 -0.4109  0.1235
19571S        S26375   7.278  11.628  25.537 -0.2015  0.2253 -0.1196
19572S        S26376   5.084   6.620  21.175 -0.2140 -0.2484 -0.1559
19573S        S26377   2.052   5.199  15.770 -0.4408  0.0743  0.0478
19574S        S26378   2.308   3.608  23.713 -0.2346  0.1858 -0.3530
19575S        S26379   2.515   6.718  19.662  0.8015  0.0605  0.1890
19576S        S26380   4.237   2.696  20.999 -0.1655 -0.3991 -0.3838
19577S        S26381   9.761  10.003  13.939  0.1122 -0.6509 -0.4791
19578S        S26382   2.955   0.998  20.694 -0.6524 -0.1034 -0.3962
19579S        S26383   4.708  10.721  21.186 -0.3500 -0.5118 -0.4065
19580S        S26384   7.442   8.890  28.691 -0.7538  0.1822 -0.9609
19581S        S26385   0.781  10.562  25.871  0.2281  0.8094  0.1593
19582S        S26386   0.791   8.811  13.304 -0.0366  0.0555  0.3364
19583S        S26387   7.739  11.531  25.384 -0.0694  0.1904  0.0221
19584S        S26388   8.073   8.576  17.291 -0.0132 -0.0933 -0.0170
19585S        S26389   9.459   2.533  26.596 -0.5102  0.2416  0.3345
19586S        S26390   8.434  11.171  16.489  0.1058 -0.0224 -0.1923
19587S        S26391   1.406  11.174  22.358 -0.0050  0.0634 -0.2249
19588S        S26392   9.681   1.519  18.964 -0.0626 -0.1285 -0.3859
19589S        S26393   2.615   0.009  11.771  0.0219 -0.4953  0.0035
19590S        S26394   7.733  11.902  12.464  0.0809 -0.0322  0.0884
19591S        S26395   6.654   6.681  20.061  0.1870  0.0495 -0.4442
19592S        S26396   0.030   5.761  25.513  0.4739  0.3253 -0.3887
19593S        S26397  10.338  12.129  14.438 -0.3143  0.1443  0.4866
19594S        S26398   2.629   4.230  13.282  0.7829 -0.2955 -0.1226
19595S        S26399   1.286   5.973  15.951 -0.3989 -0.2837  0.1401
19596S        S26400   5.924   7.826  29.059  0.7040 -0.0420 -0.0627
19597S        S26401  11.992  10.216  24.658  0.3644 -0.1628 -0.3277
19598S        S26402  11.783   8.541  15.586  0.1093  0.1433  0.1918
19599S        S26403   1.093   8.127  23.057 -0.2967 -0.3185 -0.1968
19600S        S26404  10.422  10.169  16.310 -0.2197  0.4477  0.1093
19601S        S26405  10.697  11.261  15.496  0.2065 -0.1463 -0.1268
19602S        S26406   0.616   7.116  22.496 -0.3562 -0.3196 -0.0346
19603S        S26407   7.802   5.791  17.692 -0.4699  0.0523  0.5947
19604S        S26408   7.906   4.541  12.596 -0.0440  0.0769 -0.4230
19605S        S26409  11.262   0.134  18.077 -0.2372  0.4630 -0.0269
19606S        S26410   2.252   3.315  13.243 -0.0359 -0.1288  0.8898
19607S        S26411   3.316   4.038  17.293 -0.2508 -0.4514 -0.4939
19608S        S26412   0.552  10.378  32.015  0.8294  0.5993  0.3376
19609S        S26413  11.328  11.383  28.962 -0.3895  0.3913  0.0495
19610S        S26414   6.805   4.086  20.484 -0.0249 -0.1373 -0.2853
19611S        S26415   9.895   5.594  26.975 -0.0861  0.2003  0.2661
19612S        S26416  11.054   2.870  28.559 -0.4368  0.1432  0.2530
19613S        S26417  11.280   9.432  11.191  0.0184 -0.4054  0.2037
19614S        S26418   3.032  10.378  13.077 -0.1333 -0.1516  0.3687
19615S        S26419   9.797   3.802  27.043  0.1154  0.0188 -0.4184
19616S        S26420   5.922  10.704  13.684  0.0994  0.0592 -0.4199
19617S        S26421   6.657   3.769  24.580  0.5061 -0.3528 -0.0486
19618S        S26422   5.855  10.150  19.837  0.1307  0.1972  0.4239
19619S        S26423   9.486  10.886  11.529 -0.1990 -0.2570  0.5079
19620S        S26424   2.198   1.337  49.862 -0.2359 -0.1331 -0.5175
19621S        S26425   4.951   0.398  22.770  0.3537  0.3407 -0.1131
19622S        S26426   8.914   2.583  21.348  0.3059 -0.3487 -0.2455
19623S        S26427  10.151   0.219  14.315  0.1108  0.5428 -0.1342
19624S        S26428  11.259  11.795  25.227 -0.0112  0.2694 -0.3696
19625S        S26429   3.055   0.725  26.105  0.0642 -0.6254  0.1599
19626S        S26430   6.411  11.217  11.542 -0.0734 -0.5109 -0.3801
19627S        S26431   0.152   1.753  48.572 -0.1658 -0.0778  0.2979
19628S        S26432   6.148   6.089  22.544  0.5234 -0.3293 -0.0008
19629S        S26433  10.480   1.873  27.367 -0.1189  0.1866  0.0993
19630S        S26434   7.679   3.138   1.511 -0.3570  0.0085  0.3302
19631S        S26435   1.210   1.687  19.386  0.0201  0.1934  0.0672
19632S        S26436   2.439   2.286  28.690  0.0244  0.3071 -0.3229
19633S        S26437   3.234   1.837  13.352 -0.2778  0.1327 -0.0869
19634S        S26438  10.045  10.066   2.866  0.1435 -0.0688  0.0593
19635S        S26439  10.890  10.657  21.833  0.3220  0.2275 -0.4838
19636S        S26440  11.136   4.485  20.262 -0.1937 -0.0865  0.2320
19637S        S26441  10.141   8.930  16.274  0.6714  0.3879  0.0429
19638S        S26442   7.348   8.842  21.513 -0.1800  0.4633  0.1075
19639S        S26443  11.649   3.683  15.446 -0.0331  0.7277 -0.3693
19640S        S26444   3.725   8.241  23.254 -0.3784  0.2877 -0.4570
19641S        S26445   7.635   8.326  26.294 -0.0104  0.0025  0.1601
19642S        S26446  11.754   1.985  28.679 -0.5006 -0.1893  0.3726
19643S        S26447  11.055   4.719  24.935  0.1749 -0.0231 -0.0849
19644S        S26448   3.269   8.740  17.744  0.6810  0.0056  0.0062
19645S        S26449   7.570   6.081  22.234  0.1031 -0.1488  0.5317
19646S        S26450   0.629   9.975  20.929  0.2885 -0.3476 -0.3429
19647S        S26451   4.342   5.269  14.098 -0.4107  0.5781  0.1690
19648S        S26452   6.626   3.716  16.691 -0.3208 -0.1813 -0.6426
19649S        S26453   0.314   3.473  22.501  0.1726  0.1470 -0.5496
19650S        S26454   1.483   2.640  18.171  0.1517  0.2832 -0.3003
19651S        S26455   3.443  10.335  16.596 -0.2201 -0.2016 -0.8499
19652S        S26456   3.754   7.197   9.938 -0.0563  0.3497 -0.0655
19653S        S26457  11.493   5.127  19.578  0.5017  0.1388 -0.5698
19654S        S26458  10.395   0.465  49.586 -0.1983 -0.4555 -0.0778
19655S        S26459   7.655   0.334  30.893 -0.5761  0.2175  0.2026
19656S        S26460   6.398   3.433  13.390  0.0323 -0.2078 -0.0880
19657S        S26461   9.451   8.184  21.700  0.2427  0.2095 -0.1388
19658S        S26462   3.891  10.882  29.269 -0.0595  0.1676  0.2482
19659S        S26463   9.789   2.051  14.760 -0.3175  0.8063  0.3238
19660S        S26464   1.462   9.064  17.573 -0.2892 -0.2169 -0.2985
19661S        S26465  10.970   2.540   7.573 -0.3055  0.1153  0.3887
19662S        S26466   1.774   5.701  15.777 -0.4841 -0.2806  0.1031
19663S        S26467   6.051   4.659  20.542  0.2686 -0.6048 -0.2425
19664S        S26468   3.292   9.082  18.472  0.1957  0.0264 -0.5056
19665S        S26469   9.030   0.411  23.666  0.1745 -0.3361 -0.5401
19666S        S26470   1.718   9.792  19.130  0.5679  0.6401  0.0365
19667S        S26471   2.143   7.571  30.180 -0.5358  0.4021  0.1821
19668S        S26472   5.861  10.199  25.134 -0.1275 -0.1475 -0.3202
19669S        S26473  10.395   2.611  22.335 -0.0545  0.6810  0.0701
19670S        S26474  10.638   6.366  12.175  0.2908  0.2976  0.5074
19671S        S26475   5.630   8.344  20.060 -0.4156 -0.0518 -0.1664
19672S        S26476   2.030   7.493  31.230  0.1757  0.1267  0.3052
19673S        S26477   0.515  11.034  26.587  0.1099  0.0206 -0.1614
19674S        S26478  10.592   5.762  19.145  0.1384  0.1706 -0.1608
19675S        S26479  10.606   9.389  16.728 -0.3597 -0.2702  0.2529
19676S        S26480   4.098   3.621  19.915 -0.4313  0.1819 -0.2690
19677S        S26481   8.438   1.442  13.948 -0.4536  0.1943  0.1074
19678S        S26482   7.555   3.333  14.452 -0.7881 -0.1502  0.7364
19679S        S26483   2.087   0.785  18.719  0.1418 -0.5004  0.5157
19680S        S26484   1.701   2.730  23.217  0.4137  0.1806 -0.5497
19681S        S26485   9.080  10.623  18.489 -0.3651 -0.4995  0.4960
19682S        S26486   1.985  10.541  19.683  0.4403  0.4891  0.5399
19683S        S26487  10.225   4.797  26.128 -0.2964  0.5397 -0.0895
19684S        S26488   0.557   5.253  11.425  0.0518 -0.3094 -0.2599
19685S        S26489   7.637   8.643   1.466  0.3274  0.1313 -0.0232
19686S        S26490   7.144   6.343  25.421 -0.2020  0.1688 -0.0164
19687S        S26491   4.655  12.294  16.640 -0.3137 -0.2153  0.2230
19688S        S26492   5.114  11.507  20.375 -0.1444  0.2315  0.2553
19689S        S26493   5.030   3.858  25.102  0.7581  0.2440 -0.0915
19690S        S26494   0.192   4.488  18.375  0.1172 -0.1163  0.0133
19691S        S26495   5.434   6.447  28.987  0.0863  0.0998 -0.1379
19692S        S26496   2.034   0.334  11.656 -0.2203 -1.0559  0.0800
19693S        S26497   1.346  10.892  31.660 -0.5075  0.0893 -0.1265
19694S        S26498   2.525   0.681  23.757 -0.3690  0.2947 -0.3627
19695S        S26499   8.172  10.820  23.994 -0.3676 -0.2362  0.3284
19696S        S26500  10.959  11.560  16.416  0.1977 -0.2719  0.0298
19697S        S26501  11.248   1.255  17.193  0.0913 -0.1676 -0.0482
19698S        S26502   0.193   5.579   0.691 -0.2534  0.3030  0.1960
19699S        S26503   3.850   0.624  15.161 -0.1980 -0.2406 -0.4930
19700S        S26504   8.665   1.000  27.585  0.0368  0.3685 -0.0611
19701S        S26505   7.846   2.180  17.606 -0.0558 -0.1075  0.0831
19702S        S26506  11.419  10.317  18.647  0.4807  0.0026 -0.5439
19703S        S26507   4.738   8.836  28.671  0.1153 -0.1690  0.2029
19704S        S26508   5.954   4.284  18.800  0.0200 -0.1586  0.3730
19705S        S26509   1.514  11.787  28.669  0.1574  0.1769  0.0490
19706S        S26510   0.898   8.870  11.847  0.3706  0.3668  0.5458
19707S        S26511   0.312  11.418  11.491 -0.1268  0.4598  0.1983
19708S        S26512   9.577  12.112  20.334  0.0722  0.2997  0.0020
19709S        S26513   7.986   0.842  20.769 -0.8510  0.2226 -0.0634
19710S        S26514   6.667   2.486  16.163  0.2133  0.4873 -0.1658
19711S        S26515  12.036   7.774  28.908  0.4160 -0.0951  0.3708
19712S        S26516   9.889   7.821  21.622 -0.4716 -0.1659  0.0335
19713S        S26517   7.448  10.565  28.432  0.0688  0.0349  0.4942
19714S        S26518   7.561   8.320  12.388 -0.4174 -0.3141 -0.1040
19715S        S26519   4.168   8.611  15.928 -0.3051  0.2849 -0.2096
19716S        S26520   8.301   9.217  30.324 -0.1446  0.3094 -0.0209
19717S        S26521   2.454   1.267  19.597 -0.1919  0.3697  0.1629
19718S        S26522   9.801   1.604  14.145 -0.1513 -0.2727 -0.3582
19719S        S26523   7.412   3.055  29.633 -0.1778 -0.0532 -0.1476
19720S        S26524   0.976  10.519  23.432 -0.2446 -0.2870  0.1960
19721S        S26525   1.827  11.824  19.473 -0.3081 -0.2141 -0.1234
19722S        S26526   9.351  10.494  11.130 -0.7145  0.1132 -0.2578
19723S        S26527   1.420   6.968  16.766  0.4061 -0.3289 -0.0802
19724S        S26528   2.560  12.203  13.271 -0.1398  0.2853 -0.2270
19725S        S26529   3.566  10.435  30.817 -0.0013 -0.1349  0.0605
19726S        S26530   5.783   4.121  22.837  0.2139 -0.6377  0.2150
19727S        S26531   9.761   2.403  29.114 -0.0318 -0.3594 -0.1376
19728S        S26532   7.342   5.668  22.103  0.1533  0.4757 -0.1487
19729S        S26533   2.138   4.018  28.900  0.6610  0.3122  0.6449
19730S        S26534   1.974   5.398  31.362  0.4649 -0.0450  0.3291
19731S        S26535   6.959   7.673  13.304 -0.3716 -0.2436  0.2268
19732S        S26536   4.992   9.070  15.496  0.1071 -0.2645 -0.4248
19733S        S26537  11.105  11.862  14.947  0.1780  0.4147 -0.0752
19734S        S26538   6.938   4.614  15.755  0.0472  0.3511 -0.1433
19735S        S26539  12.248   8.751  14.446 -0.0400 -0.1782  0.0399
19736S        S26540  12.064   2.628  32.574 -0.6181  0.5461  0.0554
  12.36305  12.36305  50.00000
