[ moleculetype ]
P 2

[atoms]
; nr type resnr residue atom cgnr charge mass
1	A0	1	hA 	Ah	1
2	B	2	mB 	Bm	2
3	C	3	mC 	Cm	3
4	C	4	mC 	Cm	4
5	R	5	mR 	Rm	5
6	B	6	mB 	Bm	6
7	A	7	mA 	Am	7
8	B	8	mB 	Bm	8
9	C	9	mC 	Cm	9
10	C	10	mC 	Cm	10
11	R	11	mR 	Rm	11
12	B	12	mB 	Bm	12
13	A	13	mA 	Am	13
14	B	14	mB 	Bm	14
15	C	15	mC 	Cm	15
16	C	16	mC 	Cm	16
17	R	17	mR 	Rm	17
18	B	18	mB 	Bm	18
19	A	19	mA 	Am	19
20	B	20	mB 	Bm	20
21	C	21	mC 	Cm	21
22	C	22	mC 	Cm	22
23	R	23	mR 	Rm	23
24	B	24	mB 	Bm	24
25	A	25	mA 	Am	25
26	B	26	mB 	Bm	26
27	C	27	mC 	Cm	27
28	C	28	mC 	Cm	28
29	R	29	mR 	Rm	29
30	B	30	mB 	Bm	30
31	A	31	mA 	Am	31
32	B	32	mB 	Bm	32
33	C	33	mC 	Cm	33
34	C	34	mC 	Cm	34
35	R	35	mR 	Rm	35
36	B	36	mB 	Bm	36
37	A	37	mA 	Am	37
38	B	38	mB 	Bm	38
39	C	39	mC 	Cm	39
40	C	40	mC 	Cm	40
41	R	41	mR 	Rm	41
42	B	42	mB 	Bm	42
43	A	43	mA 	Am	43
44	B	44	mB 	Bm	44
45	C	45	mC 	Cm	45
46	C	46	mC 	Cm	46
47	R	47	mR 	Rm	47
48	B	48	mB 	Bm	48
49	A	49	mA 	Am	49
50	B	50	mB 	Bm	50
51	C	51	mC 	Cm	51
52	C	52	mC 	Cm	52
53	R	53	mR 	Rm	53
54	B	54	mB 	Bm	54
55	A	55	mA 	Am	55
56	B	56	mB 	Bm	56
57	C	57	mC 	Cm	57
58	C	58	mC 	Cm	58
59	R	59	mR 	Rm	59
60	B	60	mB 	Bm	60
61	A	61	mA 	Am	61
62	B	62	mB 	Bm	62
63	C	63	mC 	Cm	63
64	C	64	mC 	Cm	64
65	R	65	mR 	Rm	65
66	B	66	mB 	Bm	66
67	A	67	mA 	Am	67
68	B	68	mB 	Bm	68
69	C	69	mC 	Cm	69
70	C	70	mC 	Cm	70
71	R	71	mR 	Rm	71
72	B	72	mB 	Bm	72
73	A	73	mA 	Am	73
74	B	74	mB 	Bm	74
75	C	75	mC 	Cm	75
76	C	76	mC 	Cm	76
77	R	77	mR 	Rm	77
78	B	78	mB 	Bm	78
79	A	79	mA 	Am	79
80	B	80	mB 	Bm	80
81	C	81	mC 	Cm	81
82	C	82	mC 	Cm	82
83	R	83	mR 	Rm	83
84	B	84	mB 	Bm	84
85	A	85	mA 	Am	85
86	B	86	mB 	Bm	86
87	C	87	mC 	Cm	87
88	C	88	mC 	Cm	88
89	R	89	mR 	Rm	89
90	B	90	mB 	Bm	90
91	A	91	mA 	Am	91
92	B	92	mB 	Bm	92
93	C	93	mC 	Cm	93
94	C	94	mC 	Cm	94
95	R	95	mR 	Rm	95
96	B	96	mB 	Bm	96
97	A	97	mA 	Am	97
98	B	98	mB 	Bm	98
99	C	99	mC 	Cm	99
100	C	100	mC 	Cm	100
101	R	101	mR 	Rm	101
102	B	102	mB 	Bm	102
103	A	103	mA 	Am	103
104	B	104	mB 	Bm	104
105	C	105	mC 	Cm	105
106	C	106	mC 	Cm	106
107	R	107	mR 	Rm	107
108	B0	108	tB 	Bt	108

[ bonds ]
;A-B		
1	2	1
7	8	1
13	14	1
19	20	1
25	26	1
31	32	1
37	38	1
43	44	1
49	50	1
55	56	1
61	62	1
67	68	1
73	74	1
79	80	1
85	86	1
91	92	1
97	98	1
103	104	1
;B-A		
6	7	1
12	13	1
18	19	1
24	25	1
30	31	1
36	37	1
42	43	1
48	49	1
54	55	1
60	61	1
66	67	1
72	73	1
78	79	1
84	85	1
90	91	1
96	97	1
102	103	1
;B-C		
2	3	1
8	9	1
14	15	1
20	21	1
26	27	1
32	33	1
38	39	1
44	45	1
50	51	1
56	57	1
62	63	1
68	69	1
74	75	1
80	81	1
86	87	1
92	93	1
98	99	1
104	105	1
;C-B		
4	6	1
10	12	1
16	18	1
22	24	1
28	30	1
34	36	1
40	42	1
46	48	1
52	54	1
58	60	1
64	66	1
70	72	1
76	78	1
82	84	1
88	90	1
94	96	1
100	102	1
106	108	1
;C-C		
3	4	1
9	10	1
15	16	1
21	22	1
27	28	1
33	34	1
39	40	1
45	46	1
51	52	1
57	58	1
63	64	1
69	70	1
75	76	1
81	82	1
87	88	1
93	94	1
99	100	1
105	106	1
;C-R1		
3	5	1
9	11	1
15	17	1
21	23	1
27	29	1
33	35	1
39	41	1
45	47	1
51	53	1
57	59	1
63	65	1
69	71	1
75	77	1
81	83	1
87	89	1
93	95	1
99	101	1
105	107	1
;C-R2		
4	5	1
10	11	1
16	17	1
22	23	1
28	29	1
34	35	1
40	41	1
46	47	1
52	53	1
58	59	1
64	65	1
70	71	1
76	77	1
82	83	1
88	89	1
94	95	1
100	101	1
106	107	1

[ angles ]
;A-B-C			
1	2	3	1
7	8	9	1
13	14	15	1
19	20	21	1
25	26	27	1
31	32	33	1
37	38	39	1
43	44	45	1
49	50	51	1
55	56	57	1
61	62	63	1
67	68	69	1
73	74	75	1
79	80	81	1
85	86	87	1
91	92	93	1
97	98	99	1
103	104	105	1
;C-B-A			
4	6	7	1
10	12	13	1
16	18	19	1
22	24	25	1
28	30	31	1
34	36	37	1
40	42	43	1
46	48	49	1
52	54	55	1
58	60	61	1
64	66	67	1
70	72	73	1
76	78	79	1
82	84	85	1
88	90	91	1
94	96	97	1
100	102	103	1
;B-C-C			
2	3	4	1
8	9	10	1
14	15	16	1
20	21	22	1
26	27	28	1
32	33	34	1
38	39	40	1
44	45	46	1
50	51	52	1
56	57	58	1
62	63	64	1
68	69	70	1
74	75	76	1
80	81	82	1
86	87	88	1
92	93	94	1
98	99	100	1
104	105	106	1
;C-C-B			
3	4	6	1
9	10	12	1
15	16	18	1
21	22	24	1
27	28	30	1
33	34	36	1
39	40	42	1
45	46	48	1
51	52	54	1
57	58	60	1
63	64	66	1
69	70	72	1
75	76	78	1
81	82	84	1
87	88	90	1
93	94	96	1
99	100	102	1
105	106	108	1
;B-C-R			
2	3	5	1
8	9	11	1
14	15	17	1
20	21	23	1
26	27	29	1
32	33	35	1
38	39	41	1
44	45	47	1
50	51	53	1
56	57	59	1
62	63	65	1
68	69	71	1
74	75	77	1
80	81	83	1
86	87	89	1
92	93	95	1
98	99	101	1
104	105	107	1
;R-C-B			
5	4	6	1
11	10	12	1
17	16	18	1
23	22	24	1
29	28	30	1
35	34	36	1
41	40	42	1
47	46	48	1
53	52	54	1
59	58	60	1
65	64	66	1
71	70	72	1
77	76	78	1
83	82	84	1
89	88	90	1
95	94	96	1
101	100	102	1
107	106	108	1
;B-A-B			
6	7	8	1
12	13	14	1
18	19	20	1
24	25	26	1
30	31	32	1
36	37	38	1
42	43	44	1
48	49	50	1
54	55	56	1
60	61	62	1
66	67	68	1
72	73	74	1
78	79	80	1
84	85	86	1
90	91	92	1
96	97	98	1
102	103	104	1

[ dihedrals ]
;A-B-C-C						
1	2	3	4	2	47.98	554.7
7	8	9	10	2	47.98	554.7
13	14	15	16	2	47.98	554.7
19	20	21	22	2	47.98	554.7
25	26	27	28	2	47.98	554.7
31	32	33	34	2	47.98	554.7
37	38	39	40	2	47.98	554.7
43	44	45	46	2	47.98	554.7
49	50	51	52	2	47.98	554.7
55	56	57	58	2	47.98	554.7
61	62	63	64	2	47.98	554.7
67	68	69	70	2	47.98	554.7
73	74	75	76	2	47.98	554.7
79	80	81	82	2	47.98	554.7
85	86	87	88	2	47.98	554.7
91	92	93	94	2	47.98	554.7
97	98	99	100	2	47.98	554.7
103	104	105	106	2	47.98	554.7
;C-C-B-A						
3	4	6	7	2	-47.98	554.7
9	10	12	13	2	-47.98	554.7
15	16	18	19	2	-47.98	554.7
21	22	24	25	2	-47.98	554.7
27	28	30	31	2	-47.98	554.7
33	34	36	37	2	-47.98	554.7
39	40	42	43	2	-47.98	554.7
45	46	48	49	2	-47.98	554.7
51	52	54	55	2	-47.98	554.7
57	58	60	61	2	-47.98	554.7
63	64	66	67	2	-47.98	554.7
69	70	72	73	2	-47.98	554.7
75	76	78	79	2	-47.98	554.7
81	82	84	85	2	-47.98	554.7
87	88	90	91	2	-47.98	554.7
93	94	96	97	2	-47.98	554.7
99	100	102	103	2	-47.98	554.7
;A-B-C-R						
1	2	3	5	2	-67.27	841.2
7	8	9	11	2	-67.27	841.2
13	14	15	17	2	-67.27	841.2
19	20	21	23	2	-67.27	841.2
25	26	27	29	2	-67.27	841.2
31	32	33	35	2	-67.27	841.2
37	38	39	41	2	-67.27	841.2
43	44	45	47	2	-67.27	841.2
49	50	51	53	2	-67.27	841.2
55	56	57	59	2	-67.27	841.2
61	62	63	65	2	-67.27	841.2
67	68	69	71	2	-67.27	841.2
73	74	75	77	2	-67.27	841.2
79	80	81	83	2	-67.27	841.2
85	86	87	89	2	-67.27	841.2
91	92	93	95	2	-67.27	841.2
97	98	99	101	2	-67.27	841.2
103	104	105	107	2	-67.27	841.2
;R-C-B-A						
5	4	6	7	2	67.27	841.2
11	10	12	13	2	67.27	841.2
17	16	18	19	2	67.27	841.2
23	22	24	25	2	67.27	841.2
29	28	30	31	2	67.27	841.2
35	34	36	37	2	67.27	841.2
41	40	42	43	2	67.27	841.2
47	46	48	49	2	67.27	841.2
53	52	54	55	2	67.27	841.2
59	58	60	61	2	67.27	841.2
65	64	66	67	2	67.27	841.2
71	70	72	73	2	67.27	841.2
77	76	78	79	2	67.27	841.2
83	82	84	85	2	67.27	841.2
89	88	90	91	2	67.27	841.2
95	94	96	97	2	67.27	841.2
101	100	102	103	2	67.27	841.2
;C-B-A-B				
4	6	7	8	2
10	12	13	14	2
16	18	19	20	2
22	24	25	26	2
28	30	31	32	2
34	36	37	38	2
40	42	43	44	2
46	48	49	50	2
52	54	55	56	2
58	60	61	62	2
64	66	67	68	2
70	72	73	74	2
76	78	79	80	2
82	84	85	86	2
88	90	91	92	2
94	96	97	98	2
100	102	103	104	2
;B-A-B-C				
6	7	8	9	2
12	13	14	15	2
18	19	20	21	2
24	25	26	27	2
30	31	32	33	2
36	37	38	39	2
42	43	44	45	2
48	49	50	51	2
54	55	56	57	2
60	61	62	63	2
66	67	68	69	2
72	73	74	75	2
78	79	80	81	2
84	85	86	87	2
90	91	92	93	2
96	97	98	99	2
102	103	104	105	2

[ exclusions ]
;1-4 A-(B-C)-C	
1	4
7	10
13	16
19	22
25	28
31	34
37	40
43	46
49	52
55	58
61	64
67	70
73	76
79	82
85	88
91	94
97	100
103	106
;1-4 C-(C-B)-A
3	7
9	13
15	19
21	25
27	31
33	37
39	43
45	49
51	55
57	61
63	67
69	73
75	79
81	85
87	91
93	97
99	103
;1-4 A-(B-C)-R	
1	5
7	11
13	17
19	23
25	29
31	35
37	41
43	47
49	53
55	59
61	65
67	71
73	77
79	83
85	89
91	95
97	101
103	107
;1-4 R-(C-B)-A	
5	7
11	13
17	19
23	25
29	31
35	37
41	43
47	49
53	55
59	61
65	67
71	73
77	79
83	85
89	91
95	97
101	103
;1-4 C-(B-A)-B	
4	8
10	14
16	20
22	26
28	32
34	38
40	44
46	50
52	56
58	62
64	68
70	74
76	80
82	86
88	92
94	98
100	104
;1-4 B-(A-B)-C	
6	9
12	15
18	21
24	27
30	33
36	39
42	45
48	51
54	57
60	63
66	69
72	75
78	81
84	87
90	93
96	99
102	105

#ifdef POSRES
#include "posre.itp"
#else FLEXIBLE
#endif