[ defaults ]
; nbfunc  comb-rule  gen-pairs  fudgeLJ  fudgeQQ
1       2       no      0.      0.

[ atomtypes ]
;type	mass	charge	ptype	sig	eps
S	119.378	0	A	0.4767	23.5
A0	104.152	0	A	0.3946	14.7
A	102.136	0	A	0.3946	14.7
B0	94.157	0	A	0.561	9.6
B	92.141	0	A	0.561	9.6
C	74.082	0	A	0.314	16.6
R	42.081	0	A	0.4169	7.5	

[ bondtypes ]
; i     j       func    b0      kb
A0	B	1	0.370	996682.
A	B	1	0.370	996682.
C	B0	1	0.371	1224770.
B	C	1	0.371	1224770.
C	C	1	0.409	2603729.
C	R	1	0.338	1452167.

[ angletypes ]
; i     j       k       func    th0     ka
A0	B	C	1	161.65	10575.
A	B	C	1	161.65	10575.
C	C	B0	1	155.06	7241.8
B	C	C	1	155.06	7241.8
B0	C	R	1	142.90	12282.
B	C	R	1	142.90	12282.
B	A	B	1	147.34	5282.

[ dihedraltypes ]
; i     j       k       l       func    phi0     kd     
;Group 1
C	B	A	B	2	0.	1671.2

#include "P.itp"
#include "S.itp"

[ system ]
; Name
64synMe2F+m1CHCl3

[ molecules ]
; Compound	#mols
P		64
